<?xml version="1.0"?>
<VTKFile type="UnstructuredGrid"  version="0.1"  >
<UnstructuredGrid>
<Piece  NumberOfPoints="2803" NumberOfCells="12310">
<Points>
<DataArray  type="Float64"  NumberOfComponents="3"  format="ascii">-1 -1 1  -1 -1 -1  -1 1 1  -1 1 -1  1 -1 -1  1 -1 1  1 1 1  1 1 -1  4.592425496802574e-17 -7.498798913309288e-33 0.25  4.592425496802574e-17 -7.498798913309288e-33 -0.25  -1 -1 -0.8571428571428573  -1 -1 -0.7142857142857149  -1 -1 -0.5714285714285721  -1 -1 -0.4285714285714292  -1 -1 -0.2857142857142868  -1 -1 -0.1428571428571446  -1 -1 -2.442490654175344e-15  -1 -1 0.1428571428571399  -1 -1 0.2857142857142829  -1 -1 0.4285714285714264  -1 -1 0.5714285714285696  -1 -1 0.7142857142857131  -1 -1 0.8571428571428565  -1 -0.8571428571428573 1  -1 -0.7142857142857149 1  -1 -0.5714285714285721 1  -1 -0.4285714285714292 1  -1 -0.2857142857142868 1  -1 -0.1428571428571446 1  -1 -2.442490654175344e-15 1  -1 0.1428571428571399 1  -1 0.2857142857142829 1  -1 0.4285714285714264 1  -1 0.5714285714285696 1  -1 0.7142857142857131 1  -1 0.8571428571428565 1  -1 1 -0.8571428571428573  -1 1 -0.7142857142857149  -1 1 -0.5714285714285721  -1 1 -0.4285714285714292  -1 1 -0.2857142857142868  -1 1 -0.1428571428571446  -1 1 -2.442490654175344e-15  -1 1 0.1428571428571399  -1 1 0.2857142857142829  -1 1 0.4285714285714264  -1 1 0.5714285714285696  -1 1 0.7142857142857131  -1 1 0.8571428571428565  -1 -0.8571428571428573 -1  -1 -0.7142857142857149 -1  -1 -0.5714285714285721 -1  -1 -0.4285714285714292 -1  -1 -0.2857142857142868 -1  -1 -0.1428571428571446 -1  -1 -2.442490654175344e-15 -1  -1 0.1428571428571399 -1  -1 0.2857142857142829 -1  -1 0.4285714285714264 -1  -1 0.5714285714285696 -1  -1 0.7142857142857131 -1  -1 0.8571428571428565 -1  -0.8571428571428573 -1 -1  -0.7142857142857149 -1 -1  -0.5714285714285721 -1 -1  -0.4285714285714292 -1 -1  -0.2857142857142868 -1 -1  -0.1428571428571446 -1 -1  -2.442490654175344e-15 -1 -1  0.1428571428571399 -1 -1  0.2857142857142829 -1 -1  0.4285714285714264 -1 -1  0.5714285714285696 -1 -1  0.7142857142857131 -1 -1  0.8571428571428565 -1 -1  1 -1 -0.8571428571428573  1 -1 -0.7142857142857149  1 -1 -0.5714285714285721  1 -1 -0.4285714285714292  1 -1 -0.2857142857142868  1 -1 -0.1428571428571446  1 -1 -2.442490654175344e-15  1 -1 0.1428571428571399  1 -1 0.2857142857142829  1 -1 0.4285714285714264  1 -1 0.5714285714285696  1 -1 0.7142857142857131  1 -1 0.8571428571428565  -0.8571428571428573 -1 1  -0.7142857142857149 -1 1  -0.5714285714285721 -1 1  -0.4285714285714292 -1 1  -0.2857142857142868 -1 1  -0.1428571428571446 -1 1  -2.442490654175344e-15 -1 1  0.1428571428571399 -1 1  0.2857142857142829 -1 1  0.4285714285714264 -1 1  0.5714285714285696 -1 1  0.7142857142857131 -1 1  0.8571428571428565 -1 1  -0.8571428571428573 1 1  -0.7142857142857149 1 1  -0.5714285714285721 1 1  -0.4285714285714292 1 1  -0.2857142857142868 1 1  -0.1428571428571446 1 1  -2.442490654175344e-15 1 1  0.1428571428571399 1 1  0.2857142857142829 1 1  0.4285714285714264 1 1  0.5714285714285696 1 1  0.7142857142857131 1 1  0.8571428571428565 1 1  1 -0.8571428571428573 1  1 -0.7142857142857149 1  1 -0.5714285714285721 1  1 -0.4285714285714292 1  1 -0.2857142857142868 1  1 -0.1428571428571446 1  1 -2.442490654175344e-15 1  1 0.1428571428571399 1  1 0.2857142857142829 1  1 0.4285714285714264 1  1 0.5714285714285696 1  1 0.7142857142857131 1  1 0.8571428571428565 1  -0.8571428571428573 1 -1  -0.7142857142857149 1 -1  -0.5714285714285721 1 -1  -0.4285714285714292 1 -1  -0.2857142857142868 1 -1  -0.1428571428571446 1 -1  -2.442490654175344e-15 1 -1  0.1428571428571399 1 -1  0.2857142857142829 1 -1  0.4285714285714264 1 -1  0.5714285714285696 1 -1  0.7142857142857131 1 -1  0.8571428571428565 1 -1  1 1 -0.8571428571428573  1 1 -0.7142857142857149  1 1 -0.5714285714285721  1 1 -0.4285714285714292  1 1 -0.2857142857142868  1 1 -0.1428571428571446  1 1 -2.442490654175344e-15  1 1 0.1428571428571399  1 1 0.2857142857142829  1 1 0.4285714285714264  1 1 0.5714285714285696  1 1 0.7142857142857131  1 1 0.8571428571428565  1 -0.8571428571428573 -1  1 -0.7142857142857149 -1  1 -0.5714285714285721 -1  1 -0.4285714285714292 -1  1 -0.2857142857142868 -1  1 -0.1428571428571446 -1  1 -2.442490654175344e-15 -1  1 0.1428571428571399 -1  1 0.2857142857142829 -1  1 0.4285714285714264 -1  1 0.5714285714285696 -1  1 0.7142857142857131 -1  1 0.8571428571428565 -1  0.1391271563846182 -2.271755023211946e-17 -0.2456609303618687  0.2776681397255407 -4.533938647201112e-17 -0.2322356093332223  0.4147682774422558 -6.772595244766933e-17 -0.208291269360849  0.5486506904372669 -8.958710825253123e-17 -0.170451172507525  0.6736178122570311 -1.099925196838954e-16 -0.1099186785310199  0.7499999999999998 -1.224646799147353e-16 9.200754467199925e-16  0.6736178122570299 -1.099925196838952e-16 0.1099186785310208  0.5486506904372654 -8.958710825253097e-17 0.1704511725075256  0.4147682774422515 -6.772595244766861e-17 0.20829126936085  0.2776681397255359 -4.533938647201036e-17 0.232235609333223  0.1391271563846173 -2.271755023211931e-17 0.2456609303618687  -1 -0.8743902340426846 0.07145816727752519  -1 0.07406049975550655 0.8835804688716444  -1 0.07142857142856873 -0.8762820851736521  -1 0.8762820851736521 0.07142857142856851  -1 -0.8663211732008511 -0.3570336988307369  -1 -0.361570673803411 0.9028788008799784  -1 0.8762820851736521 -0.3571428571428581  -1 -0.3481751800665925 -0.8860022612146056  -1 0.5030557096254962 0.8731858459950366  -1 -0.8743058952874607 0.5001615757390265  -1 0.501569900212635 -0.8730496581561176  -1 0.876282085173651 0.499999999999998  -1 -0.6452440052411348 -0.8746875646273229  -1 -0.6487630630650422 0.8735181518303117  -1 0.8769561843049143 -0.6416895689124613  -1 -0.8670807112200491 -0.6433005066850432  -1 0.7669740022979483 0.8713183694451174  -1 -0.8802605153124605 0.7850925139105445  -1 0.7725963401346569 -0.8706146789370302  -1 0.8762820851736512 0.357142857142855  -1 0.7525641703473029 0.4285714285714262  -1 0.7525641703473025 0.571428571428569  -1 0.6288462555209542 0.4999999999999967  -1 0.6288462555209551 0.3571428571428541  -1 0.5051283406946068 0.4285714285714246  -1 0.5051283406946079 0.2857142857142818  -1 0.3814104258682596 0.3571428571428523  -1 0.3814104258682605 0.2142857142857093  -1 0.2576925110419117 0.2857142857142798  -1 0.257692511041913 0.1428571428571377  -1 0.1339745962155645 0.2142857142857078  -1 0.1339745962155656 0.07142857142856562  -1 0.01025668138921731 0.1428571428571357  -1 0.01025668138921842 -6.439293542825908e-15  -1 0.1339745962155665 -0.07142857142857673  -1 0.01025668138921909 -0.1428571428571486  -1 -0.113461233437129 -0.07142857142857806  -1 0.1339745962155674 -0.2142857142857191  -1 -0.1134612334371286 -0.2142857142857201  -1 -0.2371791482634766 -0.1428571428571493  -1 0.01025668138921576 0.285714285714278  -1 0.3814104258682618 0.07142857142856718  -1 -0.1134612334371308 0.2142857142857058  -1 -0.2371791482634762 -0.2857142857142917  -1 -0.1134612334371323 0.3571428571428481  -1 -0.2371791482634795 0.2857142857142758  -1 -0.1134612334371281 -0.3571428571428624  -1 -0.3608970630898243 -0.2142857142857211  -1 -0.3608970630898236 -0.3571428571428635  -1 0.2576925110419106 0.4285714285714226  -1 -0.2371791482634809 0.4285714285714179  -1 -0.3608970630898279 0.3571428571428457  -1 -0.3608970630898271 0.214285714285704  -1 -0.4838651831758138 0.2870129682998279  -1 -0.4844900121261164 0.4287878756690082  -1 -0.4855091093616428 0.1470984240254778  -1 -0.113461233437134 0.4999999999999902  -1 -0.4846149779161717 -0.2857142857142929  -1 -0.4846149779161711 -0.4285714285714353  -1 -0.3608970630898229 -0.5000000000000059  -1 -0.4846149779161705 -0.5714285714285774  -1 -0.2371791482634824 0.5714285714285601  -1 0.5051283406946059 0.571428571428567  -1 -0.6074373045804253 0.3586940613422558  -1 -0.6110311694696879 0.5009153179085448  -1 -0.6085746029949042 -0.5000000000000069  -1 0.257692511041915 -0.1428571428571475  -1 0.2576925110419155 -0.2857142857142898  -1 0.3814104258682631 -0.2142857142857182  -1 0.3814104258682636 -0.3571428571428606  -1 0.2576925110419157 -0.4285714285714322  -1 0.3814104258682636 -0.5000000000000031  -1 0.5051283406946117 -0.4285714285714316  -1 0.2576925110419155 -0.5714285714285747  -1 0.5051283406946119 -0.5714285714285742  -1 -0.4850438630723622 0.5716171989295831  -1 0.6288462555209569 0.21428571428571  -1 0.1339745962155676 -0.5000000000000033  -1 -0.4846149779161724 -0.1428571428571507  -1 -0.6083328927425199 -0.2142857142857223  -1 -0.6101017847184107 -0.06870241994338122  -1 0.6288462555209589 -0.500000000000002  -1 0.6288462555209584 -0.3571428571428595  -1 -0.1134612334371358 0.6428571428571321  -1 0.01025668138921265 0.5714285714285627  -1 0.6288462555209602 -0.642857142857145  -1 -0.7355754489519228 -0.1422936259641603  -1 -0.2371791482634772 -7.771561172376096e-15  -1 0.1354550206558294 -0.6402929725098425  -1 0.01050341879593031 -0.5710012097040242  -1 0.256258914551114 -0.7145861216414109  -1 -0.3633868114708546 -0.638544772163138  -1 -0.2375941063269804 -0.5707098429795745  -1 -0.6096843804953354 0.6410785340922891  -1 -0.6062816767939467 -0.6392345568772875  -1 -0.2500128345096669 -0.6968368149176942  -1 -0.4878741244720448 0.7092756320729969  -1 -0.236427722159821 0.7134948436805559  -1 -0.1068747111038411 0.7774931568427332  -1 0.00717130641097885 -0.7346434990878232  -1 0.5045352672809493 -0.717892553418948  -1 0.6338281793922746 -0.7871672679168312  -1 -0.7343754899147655 0.0008536448848628364  -1 -0.737868525906441 -0.2854930148679825  -1 -0.7336799063719945 0.4288470235492601  -1 -0.7335554662824386 0.2861611944315907  -1 -0.7341193919160586 -0.5708987010699158  -1 -0.7256064173607351 -0.7379904315837018  -1 -0.8715691406710027 -0.788907639833702  -1 0.3692005132235878 -0.7885353322240922  -1 -0.8655413526229516 0.3573293157040767  -1 -0.742185802472645 0.5731842567091812  -1 -0.7329211518547809 0.7371480070279701  -1 -0.8658730696875649 -0.0711783681548
[...]
<PointData  Vectors="f_18"> 
<DataArray  type="Float64"  Name="f_18"  NumberOfComponents="3" format="ascii">0.0000000000000000e+00 0.0000000000000000e+00 0.0000000000000000e+00  0.0000000000000000e+00 0.0000000000000000e+00 0.0000000000000000e+00  0.0000000000000000e+00 0.0000000000000000e+00 0.0000000000000000e+00  0.0000000000000000e+00 0.0000000000000000e+00 0.0000000000000000e+00  0.0000000000000000e+00 0.0000000000000000e+00 0.0000000000000000e+00  0.0000000000000000e+00 0.0000000000000000e+00 0.0000000000000000e+00  0.0000000000000000e+00 0.0000000000000000e+00 0.0000000000000000e+00  0.0000000000000000e+00 0.0000000000000000e+00 0.0000000000000000e+00  -2.2962127484012871e-17 -1.8746997283273220e-33 6.2500000000000000e-02  -2.2962127484012871e-17 -1.8746997283273220e-33 -6.2500000000000000e-02  0.0000000000000000e+00 0.0000000000000000e+00 0.0000000000000000e+00  0.0000000000000000e+00 0.0000000000000000e+00 0.0000000000000000e+00  0.0000000000000000e+00 0.0000000000000000e+00 0.0000000000000000e+00  0.0000000000000000e+00 0.0000000000000000e+00 0.0000000000000000e+00  0.0000000000000000e+00 0.0000000000000000e+00 0.0000000000000000e+00  0.0000000000000000e+00 0.0000000000000000e+00 0.0000000000000000e+00  0.0000000000000000e+00 0.0000000000000000e+00 0.0000000000000000e+00  0.0000000000000000e+00 0.0000000000000000e+00 0.0000000000000000e+00  0.0000000000000000e+00 0.0000000000000000e+00 0.0000000000000000e+00  0.0000000000000000e+00 0.0000000000000000e+00 0.0000000000000000e+00  0.0000000000000000e+00 0.0000000000000000e+00 0.0000000000000000e+00  0.0000000000000000e+00 0.0000000000000000e+00 0.0000000000000000e+00  0.0000000000000000e+00 0.0000000000000000e+00 0.0000000000000000e+00  0.0000000000000000e+00 0.0000000000000000e+00 0.0000000000000000e+00  0.0000000000000000e+00 0.0000000000000000e+00 0.0000000000000000e+00  0.0000000000000000e+00 0.0000000000000000e+00 0.0000000000000000e+00  0.0000000000000000e+00 0.0000000000000000e+00 0.0000000000000000e+00  0.0000000000000000e+00 0.0000000000000000e+00 0.0000000000000000e+00  0.0000000000000000e+00 0.0000000000000000e+00 0.0000000000000000e+00  0.0000000000000000e+00 0.0000000000000000e+00 0.0000000000000000e+00  0.0000000000000000e+00 0.0000000000000000e+00 0.0000000000000000e+00  0.0000000000000000e+00 0.0000000000000000e+00 0.0000000000000000e+00  0.0000000000000000e+00 0.0000000000000000e+00 0.0000000000000000e+00  0.0000000000000000e+00 0.0000000000000000e+00 0.0000000000000000e+00  0.0000000000000000e+00 0.0000000000000000e+00 0.0000000000000000e+00  0.0000000000000000e+00 0.0000000000000000e+00 0.0000000000000000e+00  0.0000000000000000e+00 0.0000000000000000e+00 0.0000000000000000e+00  0.0000000000000000e+00 0.0000000000000000e+00 0.0000000000000000e+00  0.0000000000000000e+00 0.0000000000000000e+00 0.0000000000000000e+00  0.0000000000000000e+00 0.0000000000000000e+00 0.0000000000000000e+00  0.0000000000000000e+00 0.0000000000000000e+00 0.0000000000000000e+00  0.0000000000000000e+00 0.0000000000000000e+00 0.0000000000000000e+00  0.0000000000000000e+00 0.0000000000000000e+00 0.0000000000000000e+00  0.0000000000000000e+00 0.0000000000000000e+00 0.0000000000000000e+00  0.0000000000000000e+00 0.0000000000000000e+00 0.0000000000000000e+00  0.0000000000000000e+00 0.0000000000000000e+00 0.0000000000000000e+00  0.0000000000000000e+00 0.0000000000000000e+00 0.0000000000000000e+00  0.0000000000000000e+00 0.0000000000000000e+00 0.0000000000000000e+00  0.0000000000000000e+00 0.0000000000000000e+00 0.0000000000000000e+00  0.0000000000000000e+00 0.0000000000000000e+00 0.0000000000000000e+00  0.0000000000000000e+00 0.0000000000000000e+00 0.0000000000000000e+00  0.0000000000000000e+00 0.0000000000000000e+00 0.0000000000000000e+00  0.0000000000000000e+00 0.0000000000000000e+00 0.0000000000000000e+00  0.0000000000000000e+00 0.0000000000000000e+00 0.0000000000000000e+00  0.0000000000000000e+00 0.0000000000000000e+00 0.0000000000000000e+00  0.0000000000000000e+00 0.0000000000000000e+00 0.0000000000000000e+00  0.0000000000000000e+00 0.0000000000000000e+00 0.0000000000000000e+00  0.0000000000000000e+00 0.0000000000000000e+00 0.0000000000000000e+00  0.0000000000000000e+00 0.0000000000000000e+00 0.0000000000000000e+00  0.0000000000000000e+00 0.0000000000000000e+00 0.0000000000000000e+00  0.0000000000000000e+00 0.0000000000000000e+00 0.0000000000000000e+00  0.0000000000000000e+00 0.0000000000000000e+00 0.0000000000000000e+00  0.0000000000000000e+00 0.0000000000000000e+00 0.0000000000000000e+00  0.0000000000000000e+00 0.0000000000000000e+00 0.0000000000000000e+00  0.0000000000000000e+00 0.0000000000000000e+00 0.0000000000000000e+00  0.0000000000000000e+00 0.0000000000000000e+00 0.0000000000000000e+00  0.0000000000000000e+00 0.0000000000000000e+00 0.0000000000000000e+00  0.0000000000000000e+00 0.0000000000000000e+00 0.0000000000000000e+00  0.0000000000000000e+00 0.0000000000000000e+00 0.0000000000000000e+00  0.0000000000000000e+00 0.0000000000000000e+00 0.0000000000000000e+00  0.0000000000000000e+00 0.0000000000000000e+00 0.0000000000000000e+00  0.0000000000000000e+00 0.0000000000000000e+00 0.0000000000000000e+00  0.0000000000000000e+00 0.0000000000000000e+00 0.0000000000000000e+00  0.0000000000000000e+00 0.0000000000000000e+00 0.0000000000000000e+00  0.0000000000000000e+00 0.0000000000000000e+00 0.0000000000000000e+00  0.0000000000000000e+00 0.0000000000000000e+00 0.0000000000000000e+00  0.0000000000000000e+00 0.0000000000000000e+00 0.0000000000000000e+00  0.0000000000000000e+00 0.0000000000000000e+00 0.0000000000000000e+00  0.0000000000000000e+00 0.0000000000000000e+00 0.0000000000000000e+00  0.0000000000000000e+00 0.0000000000000000e+00 0.0000000000000000e+00  0.0000000000000000e+00 0.0000000000000000e+00 0.0000000000000000e+00  0.0000000000000000e+00 0.0000000000000000e+00 0.0000000000000000e+00  0.0000000000000000e+00 0.0000000000000000e+00 0.0000000000000000e+00  0.0000000000000000e+00 0.0000000000000000e+00 0.0000000000000000e+00  0.0000000000000000e+00 0.0000000000000000e+00 0.0000000000000000e+00  0.0000000000000000e+00 0.0000000000000000e+00 0.0000000000000000e+00  0.0000000000000000e+00 0.0000000000000000e+00 0.0000000000000000e+00  0.0000000000000000e+00 0.0000000000000000e+00 0.0000000000000000e+00  0.0000000000000000e+00 0.0000000000000000e+00 0.0000000000000000e+00  0.0000000000000000e+00 0.0000000000000000e+00 0.0000000000000000e+00  0.0000000000000000e+00 0.0000000000000000e+00 0.0000000000000000e+00  0.0000000000000000e+00 0.0000000000000000e+00 0.0000000000000000e+00  0.0000000000000000e+00 0.0000000000000000e+00 0.0000000000000000e+00  0.0000000000000000e+00 0.0000000000000000e+00 0.0000000000000000e+00  0.0000000000000000e+00 0.0000000000000000e+00 0.0000000000000000e+00  0.0000000000000000e+00 0.0000000000000000e+00 0.0000000000000000e+00  0.0000000000000000e+00 0.0000000000000000e+00 0.0000000000000000e+00  0.0000000000000000e+00 0.0000000000000000e+00 0.0000000000000000e+00  0.0000000000000000e+00 0.0000000000000000e+00 0.0000000000000000e+00  0.0000000000000000e+00 0.0000000000000000e+00 0.0000000000000000e+00  0.0000000000000000e+00 0.0000000000000000e+00 0.0000000000000000e+00  0.0000000000000000e+00 0.0000000000000000e+00 0.0000000000000000e+00  0.0000000000000000e+00 0.0000000000000000e+00 0.0000000000000000e+00  0.0000000000000000e+00 0.0000000000000000e+00 0.0000000000000000e+00  0.0000000000000000e+00 0.0000000000000000e+00 0.0000000000000000e+00  0.0000000000000000e+00 0.0000000000000000e+00 0.0000000000000000e+00  0.0000000000000000e+00 0.0000000000000000e+00 0.0000000000000000e+00  0.0000000000000000e+00 0.0000000000000000e+00 0.0000000000000000e+00  0.0000000000000000e+00 0.0000000000000000e+00 0.0000000000000000e+00  0.0000000000000000e+00 0.0000000000000000e+00 0.0000000000000000e+00  0.0000000000000000e+00 0.0000000000000000e+00 0.0000000000000000e+00  0.0000000000000000e+00 0.0000000000000000e+00 0.0000000000000000e+00  0.0000000000000000e+00 0.0000000000000000e+00 0.0000000000000000e+00  0.0000000000000000e+00 0.0000000000000000e+00 0.0000000000000000e+00  0.0000000000000000e+00 0.0000000000000000e+00 0.0000000000000000e+00  0.0000000000000000e+00 0.0000000000000000e+00 0.0000000000000000e+00  0.0000000000000000e+00 0.0000000000000000e+00 0.0000000000000000e+00  0.0000000000000000e+00 0.0000000000000000e+00 0.0000000000000000e+00  0.0000000000000000e+00 0.0000000000000000e+00 0.0000000000000000e+00  0.0000000000000000e+00 0.0000000000000000e+00 0.0000000000000000e+00  0.0000000000000000e+00 0.0000000000000000e+00 0.0000000000000000e+00  0.0000000000000000e+00 0.0000000000000000e+00 0.0000000000000000e+00  0.0000000000000000e+00 0.0000000000000000e+00 0.0000000000000000e+00  0.0000000000000000e+00 0.0000000000000000e+00 0.0000000000000000e+00  0.0000000000000000e+00 0.0000000000000000e+00 0.0000000000000000e+00  0.0000000000000000e+00 0.0000000000000000e+00 0.0000000000000000e+00  0.0000000000000000e+00 0.0000000000000000e+00 0.0000000000000000e+00  0.0000000000000000e+00 0.0000000000000000e+00 0.0000000000000000e+00  0.0000000000000000e+00 0.0000000000000000e+00 0.0000000000000000e+00  0.0000000000000000e+00 0.0000000000000000e+00 0.0000000000000000e+00  0.0000000000000000e+00 0.0000000000000000e+00 0.0000000000000000e+00  0.0000000000000000e+00 0.0000000000000000e+00 0.0000000000000000e+00  0.0000000000000000e+00 0.0000000000000000e+00 0.0000000000000000e+00  0.0000000000000000e+00 0.0000000000000000e+00 0.0000000000000000e+00  0.0000000000000000e+00 0.0000000000000000e+00 0.0000000000000000e+00  0.0000000000000000e+00 0.0000000000000000e+00 0.0000000000000000e+00  0.0000000000000000e+00 0.0000000000000000e+00 0.0000000000000000e+00  0.0000000000000000e+00 0.0000000000000000e+00 0.0000000000000000e+00  0.0000000000000000e+00 0.0000000000000000e+00 0.0000000000000000e+00  0.0000000000000000e+00 0.0000000000000000e+00 0.0000000000000000e+00  0.0000000000000000e+00 0.0000000000000000e+00 0.0000000000000000e+00  0.0000000000000000e+00 0.0000000000000000e+00 0.0000000000000000e+00  0.0000000000000000e+00 0.0000000000000000e+00 0.0000000000000000e+00  0.0000000000000000e+00 0.0000000000000000e+00 0.0000000000000000e+00  0.0000000000000000e+00 0.0000000000000000e+00 0.0000000000000000e+00  0.0000000000000000e+00 0.0000000000000000e+00 0.0000000000000000e+00  0.0000000000000000e+00 0.0000000000000000e+00 0.0000000000000000e+00  0.0000000000000000e+00 0.0000000000000000e+00 0.0000000000000000e+00  0.0000000000000000e+00 0.0000000000000000e+00 0.0000000000000000e+00  0.0000000000000000e+00 0.0000000000000000e+00 0.0000000000000000e+00  0.0000000000000000e+00 0.0000000000000000e+00 0.0000000000000000e+00  0.0000000000000000e+00 0.0000000000000000e+00 0.0000000000000000e+00  0.0000000000000000e+00 0.0000000000000000e+00 0.0000000000000000e+00  0.0000000000000000e+00 0.0000000000000000e+00 0.0000000000000000e+00  0.0000000000000000e+00 0.0000000000000000e+00 0.0000000000000000e+00  0.0000000000000000e+00 0.0000000000000000e+00 0.0000000000000000e+00  0.0000000000000000e+00 0.0000000000000000e+00 0.0000000000000000e+00  0.0000000000000000e+00 0.0000000000000000e+00 0.0000000000000000e+00  0.0000000000000000e+00 0.0000000000000000e+00 0.0000000000000000e+00  0.0000000000000000e+00 0.0000000000000000e+00 0.0000000000000000e+00  0.0000000000000000e+00 0.0000000000000000e+00 0.0000000000000000e+00  0.0000000000000000e+00 0.0000000000000000e+00 0.0000000000000000e+00  0.0000000000000000e+00 0.0000000000000000e+00 0.0000000000000000e+00  0.0000000000000000e+00 0.0000000000000000e+00 0.0000000000000000e+00  0.0000000000000000e+00 0.0000000000000000e+00 0.0000000000000000e+00  0.0000000000000000e+00 0.0000000000000000e+00 0.0000000000000000e+00  -6.9563578192309100e-02 -5.6793875580298654e-18 -6.1415232590467175e-02  -1.3883406986277036e-01 -1.1334846618002780e-17 -5.8058902333305573e-02  -2.0738413872112790e-01 -1.6931488111917332e-17 -5.2072817340212248e-02  -2.7432534521863344e-01 -2.2396777063132808e-17 -4.2612793126881252e-02  -3.3680890612851555e-01 -2.7498129920973851e-17 -2.7479669632754975e-02  -3.7499999999999989e-01 -3.0616169978683824e-17 2.3001886167999812e-16  -3.3680890612851494e-01 -2.7498129920973801e-17 2.7479669632755201e-02  -2.7432534521863272e-01 -2.2396777063132743e-17 4.2612793126881397e-02  -2.0738413872112574e-01 -1.6931488111917153e-17 5.2072817340212497e-02  -1.3883406986276794e-01 -1.1334846618002589e-17 5.8058902333305747e-02  -6.9563578192308656e-02 -5.6793875580298276e-18 6.1415232590467175e-02  0.0000000000000000e+00 0.0000000000000000e+00 0.0000000000000000e+00  0.0000000000000000e+00 0.0000000000000000e+00 0.0000000000000000e+00  0.0000000000000000e+00 0.0000000000000000e+00 0.0000000000000000e+00  0.0000000000000000e+00 0.0000000000000000e+00 0.0000000000000000e+00  0.0000000000000000e+00 0.0000000000000000e+00 0.0000000000000000e+00  0.0000000000000000e+00 0.0000000000000000e+00 0.0000000000000000e+00  0.0000000000000000e+00 0.0000000000000000e+00 0.0000000000000000e+00  0.0000000000000000e+00 0.0000000000000000e+00 0.0000000000000000e+00  0.0000000000000000e+00 0.0000000000000000e+00 0.0000000000000000e+00  0.0000000000000000e+00 0.0000000000000000e+00 0.0000000000000000e+00  0.0000000000000000e+00 0.0000000000000000e+00 0.0000000000000000e+00  0.0000000000000000e+00 0.0000000000000000e+00 0.0000000000000000e+00  0.0000000000000000e+00 0.0000000000000000e+00 0.0000000000000000e+00  0.0000000000000000e+00 0.0000000000000000e+00 0.0000000000000000e+00  0.0000000000000000e+00 0.0000000000000000e+00 0.0000000000000000e+00  0.0000000000000000e+00 0.0000000000000000e+00 0.0000000000000000e+00  0.0000000000000000e+00 0.0000000000000000e+00 0.0000000000000000e+00  0.0000000000000000e+00 0.0000000000000000e+00 0.0000000000000000e+00  0.0000000000000000e+00 0.0000000000000000e+00 0.0000000000000000e+00  0.0000000000000000e+00 0.0000000000000000e+00 0.0000000000000000e+00  0.0000000000000000e+00 0.0000000000000000e+00 0.0000000000000000e+00  0.0000000000000000e+00 0.0000000000000000e+00 0.0000000000000000e+00  0.0000000000000000e+00 0.0000000000000000e+00 0.0000000000000000e+00  0.0000000000000000e+00 0.0000000000000000e+00 0.0000000000000000e+00  0.0000000000000000e+00 0.0000000000000000e+00 0.0000000000000000e+00  0.0000000000000000e+00 0.0000000000000000e+00 0.0000000000000000e+00  0.0000000000000000e+00 0.0000000000000000e+00 0.0000000000000000e+00  0.0000000000000000e+00 0.0000000000000000e+00 0.0000000000000000e+00  0.0000000000000000e+00 0.0000000000000000e+00 0.0000000000000000e+00  0.0000000000000000e+00 0.0000000000000000e+00 0.0000000000000000e+00  0.0000000000000000e+00 0.0000000000000000e+00 0.0000000000000000e+00  0.0000000000000000e+00 0.0000000000000000e+00 0.0000000000000000e+00  0.0000000000000000e+00 0.0000000000000000e+00 0.0000000000000000e+00  0.0000000000000000e+00 0.0000000000000000e+00 0.0000000000000000e+00  0.0000000000000000e+00 0.0000000000000000e+00 0.0000000000000000e+00  0.0000000000000000e+00 0.0000000000000000e+00 0.0000000000000000e+00  0.0000000000000000e+00 0.0000000000000000e+00 0.0000000000000000e+00  0.0000000000000000e+00 0.0000000000000000e+00 0.0000000000000000e+00  0.0000000000000000e+00 0.0000000000000000e+00 0.0000000000000000e+00  0.0000000000000000e+00 0.0000000000000000e+00 0.0000000000000000e+00  0.0000000000000000e+00 0.0000000000000000e+00 0.0000000000000000e+00  0.0000000000000000e+00 0.0000000000000000e+00 0.0000000000000000e+00  0.0000000000000000e+00 0.0000000000000000e+00 0.0000000000000000e+00  0.0000000000000000e+00 0.0000000000000000e+00 0.0000000000000000e+00  0.0000000000000000e+00 0.0000000000000000e+00 0.0000000000000000e+00  0.0000000000000000e+00 0.0000000000000000e+00 0.0000000000000000e+00  0.0000000000000000e+00 0.0000000000000000e+00 0.0000000000000000e+00  0.0000000000000000e+00 0.0000000000000000e+00 0.0000000000000000e+00  0.0000000000000000e+00 0.0000000000000000e+00 0.0000000000000000e+00  0.0000000000000000e+00 0.0000000000000000e+00 0.0000000000000000e+00  0.0000000000000000e+00 0.0000000000000000e+00 0.0000000000000000e+00  0.0000000000000000e+00 0.0000000000000000e+00 0.0000000000000000e+00  0.0000000000000000e+00 0.0000000000000000e+00 0.0000000000000000e+00  0.0000000000000000e+00 0.0000000000000000e+00 0.0000000000000000e+00  0.0000000000000000e+00 0.0000000000000000e+00 0.0000000000000000e+00  0.0000000000000000e+00 0.0000000000000000e+00 0.0000000000000000e+00  0.0000000000000000e+00 0.0000000000000000e+00 0.0000000000000000e+00  0.0000000000000000e+00 0.0000000000000000e+00 0.0000000000000000e+00  0.0000000000000000e+00 0.0000000000000000e+00 0.0000000000000000e+00  0.0000000000000000e+00 0.0000000000000000e+00 0.0000000000000000e+00  0.0000000000000000e+00 0.0000000000000000e+00 0.0000000000000000e+00  0.0000000000000000e+00 0.0000000000000000e+00 0.0000000000000000e+00  0.0000000000000000e+00 0.0000000000000000e+00 0.0000000000000000e+00  0.0000000000000000e+00 0.0000000000000000e+00 0.0000000000000000e+00  0.0000000000000000e+00 0.0000000000000000e+00 0.0000000000000000e+00  0.0000000000000000e+00 0.0000000000000000e+00 0.0000000000000000e+00  0.0000000000000000e+00 0.0000000000000000e+00 0.0000000000000000e+00  0.0000000000000000e+00 0.0000000000000000e+00 0.0000000000000000e+00  0.0000000000000000e+00 0.0000000000000000e+00 0.0000000000000000e+00  0.0000000000000000e+00 0.0000000000000000e+00 0.0000000000000000e+00  0.0000000000000000e+00 0.0000000000000000e+00 0.0000000000000000e+00  0.0000000000000000e+00 0.0000000000000000e+00 0.0000000000000000e+00  0.0000000000000000e+00 0.0000000000000000e+00 0.0000000000000000e+00  0.0000000000000000e+00 0.0000000000000000e+00 0.0000000000000000e+00  0.0000000000000000e+00 0.0000000000000000e+00 0.0000000000000000e+00  0.0000000000000000e+00 0.0000000000000000e+00 0.0000000000000000e+00  0.0000000000000000e+00 0.0000000000000000e+00 0.0000000000000000e+00  0.0000000000000000e+00 0.0000000000000000e+00 0.0000000000000000e+00  0.0000000000000000e+00 0.0000000000000000e+00 0.0000000000000000e+00  0.0000000000000000e+00 0.0000000000000000e+00 0.0000000000000000e+00  0.0000000000000000e+00 0.0000000000000000e+00 0.0000000000000000e+00  0.0000000000000000e+00 0.0000000000000000e+00 0.0000000000000000e+00  0.0000000000000000e+00 0.0000000000000000e+00 0.0000000000000000e+00  0.0000000000000000e+00 0.0000000000000000e+00 0.0000000000000000e+00  0.0000000000000000e+00 0.0000000000000000e+00 0.0000000000000000e+00  0.0000000000000000e+00 0.0000000000000000e+00 0.0000000000000000e+00  0.0000000000000000e+00 0.0000000000000000e+00 0.0000000000000000e+00  0.0000000000000000e+00 0.0000000000000000e+00 0.0000000000000000e+00  0.0000000000000000e+00 0.0000000000000000e+00 0.0000000000000000e+00  0.0000000000000000e+00 0.0000000000000000e+00 0.0000000000000000e+00  0.0000000000000000e+00 0.0000000000000000e+00 0.0000000000000000e+00  0.0000000000000000e+00 0.0000000000000000e+00 0.0000000000000000e+00  0.0000000000000000e+00 0.0000000000000000e+00 0.0000000000000000e+00  0.0000000000000000e+00 0.0000000000000000e+00 0.0000000000000000e+00  0.0000000000000000e+00 0.0000000000000000e+00 0.0000000000000000e+00  0.0000000000000000e+00 0.0000000000000000e+00 0.0000000000000000e+00  0.0000000000000000e+00 0.0000000000000000e+00 0.0000000000000000e+00  0.0000000000000000e+00 0.0000000000000000e+00 0.0000000000000000e+00  0.0000000000000000e+00 0.0000000000000000e+00 0.0000000000000000e+00  0.0000000000000000e+00 0.0000000000000000e+00 0.0000000000000000e+00  0.0000000000000000e+00 0.0000000000000000e+00 0.0000000000000000e+00  0.0000000000000000e+00 0.0000000000000000e+00 0.0000000000000000e+00  0.0000000000000000e+00 0.0000000000000000e+00 0.0000000000000000e+00  0.0000000000000000e+00 0.0000000000000000e+00 0.0000000000000000e+00  0.0000000000000000e+00 0.0000000000000000e+00 0.0000000000000000e+00  0.0000000000000000e+00 0.0000000000000000e+00 0.0000000000000000e+00  0.0000000000000000e+00 0.0000000000000000e+00 0.00