<?xml version="1.0"?>
<VTKFile type="UnstructuredGrid"  version="0.1"  >
<UnstructuredGrid>
<Piece  NumberOfPoints="620" NumberOfCells="2223">
<Points>
<DataArray  type="Float64"  NumberOfComponents="3"  format="ascii">1 0 0  0 1 0  -1 0 0  0 -1 0  0 0 -1  0 0 1  -2 -2 -2  2 -2 -2  2 2 -2  -2 2 -2  -2 -2 2  2 -2 2  2 2 2  -2 2 2  0.9807852803040616 0.1950903225146834 0  0.9238795320827141 0.3826834333997557 0  0.8314696113699828 0.5555702344152805 0  0.7071067795767629 0.7071067827963321 0  0.5555702316295839 0.8314696132313258 0  0.3826834312295727 0.9238795329816333 0  0.1950903214133833 0.9807852805231239 0  -0.1950903225146834 0.9807852803040616 0  -0.3826834333997557 0.9238795320827141 0  -0.5555702344152805 0.8314696113699828 0  -0.7071067827963321 0.7071067795767629 0  -0.8314696132313258 0.5555702316295839 0  -0.9238795329816333 0.3826834312295727 0  -0.9807852805231239 0.1950903214133833 0  -0.9807852803040616 -0.1950903225146834 0  -0.9238795320827141 -0.3826834333997557 0  -0.8314696113699828 -0.5555702344152805 0  -0.7071067795767629 -0.7071067827963321 0  -0.5555702316295839 -0.8314696132313258 0  -0.3826834312295727 -0.9238795329816333 0  -0.1950903214133833 -0.9807852805231239 0  0.1950903225146834 -0.9807852803040616 0  0.3826834333997557 -0.9238795320827141 0  0.5555702344152805 -0.8314696113699828 0  0.7071067827963321 -0.7071067795767629 0  0.8314696132313258 -0.5555702316295839 0  0.9238795329816333 -0.3826834312295727 0  0.9807852805231239 -0.1950903214133833 0  0 0.9807852803040616 -0.1950903225146834  0 0.9238795320827141 -0.3826834333997557  0 0.8314696113699828 -0.5555702344152805  0 0.7071067795767629 -0.7071067827963321  0 0.5555702316295839 -0.8314696132313258  0 0.3826834312295727 -0.9238795329816333  0 0.1950903214133833 -0.9807852805231239  0 -0.1950903225146834 -0.9807852803040616  0 -0.3826834333997557 -0.9238795320827141  0 -0.5555702344152805 -0.8314696113699828  0 -0.7071067827963321 -0.7071067795767629  0 -0.8314696132313258 -0.5555702316295839  0 -0.9238795329816333 -0.3826834312295727  0 -0.9807852805231239 -0.1950903214133833  0 -0.9807852803040616 0.1950903225146834  0 -0.9238795320827141 0.3826834333997557  0 -0.8314696113699828 0.5555702344152805  0 -0.7071067795767629 0.7071067827963321  0 -0.5555702316295839 0.8314696132313258  0 -0.3826834312295727 0.9238795329816333  0 -0.1950903214133833 0.9807852805231239  0 0.1950903225146834 0.9807852803040616  0 0.3826834333997557 0.9238795320827141  0 0.5555702344152805 0.8314696113699828  0 0.7071067827963321 0.7071067795767629  0 0.8314696132313258 0.5555702316295839  0 0.9238795329816333 0.3826834312295727  0 0.9807852805231239 0.1950903214133833  0.9807852803040616 0 0.1950903225146834  0.9238795320827141 0 0.3826834333997557  0.8314696113699828 0 0.5555702344152805  0.7071067795767629 0 0.7071067827963321  0.5555702316295839 0 0.8314696132313258  0.3826834312295727 0 0.9238795329816333  0.1950903214133833 0 0.9807852805231239  -0.1950903225146834 0 0.9807852803040616  -0.3826834333997557 0 0.9238795320827141  -0.5555702344152805 0 0.8314696113699828  -0.7071067827963321 0 0.7071067795767629  -0.8314696132313258 0 0.5555702316295839  -0.9238795329816333 0 0.3826834312295727  -0.9807852805231239 0 0.1950903214133833  -0.9807852803040616 0 -0.1950903225146834  -0.9238795320827141 0 -0.3826834333997557  -0.8314696113699828 0 -0.5555702344152805  -0.7071067795767629 0 -0.7071067827963321  -0.5555702316295839 0 -0.8314696132313258  -0.3826834312295727 0 -0.9238795329816333  -0.1950903214133833 0 -0.9807852805231239  0.1950903225146834 0 -0.9807852803040616  0.3826834333997557 0 -0.9238795320827141  0.5555702344152805 0 -0.8314696113699828  0.7071067827963321 0 -0.7071067795767629  0.8314696132313258 0 -0.5555702316295839  0.9238795329816333 0 -0.3826834312295727  0.9807852805231239 0 -0.1950903214133833  -5.505595979116151e-12 -2 2  2 -2 5.505595979116151e-12  5.505595979116151e-12 -2 -2  -2 -2 -5.505595979116151e-12  -2 -5.505595979116151e-12 2  -2 2 5.505595979116151e-12  -2 5.505595979116151e-12 -2  -5.505595979116151e-12 2 -2  2 2 -5.505595979116151e-12  5.505595979116151e-12 2 2  2 5.505595979116151e-12 2  2 -5.505595979116151e-12 -2  -0.6278008024952496 0.7595495264482321 0.1701489619674092  -0.1635151376365849 0.6259559374182565 0.7625234187712011  -0.7644391559573903 0.1559349249178707 0.6255534158087626  -0.167606520335757 0.8721005287342334 0.459726790738162  -0.4593044999059308 0.1739001605174569 0.8710901850773924  -0.870819396926198 0.4606103702582397 0.1717895944103139  -0.9432634517995823 0.1635870542959334 0.2889521347315438  -0.160739229739965 0.2918139902744952 0.9428719399275172  -0.2929620146505668 0.942809750122004 0.1590063931002946  -0.7650863946131674 0.6212181197416821 0.1695017890242874  -0.6749483713768296 0.6588242781199133 0.3322578314134078  -0.5210355662455279 0.7856167151754591 0.3336589809133327  -0.557387353962406 0.6712465305941974 0.4886178801558949  -0.69412933582225 0.5404734132001825 0.4754712975298369  -0.5709168071159901 0.5324442336821738 0.6249457075387319  -0.4251062958773584 0.6703272544966763 0.6082318711514385  -0.4277232163540311 0.5038781681385904 0.7504396323922804  -0.5832991173241427 0.3673879359886907 0.7244226972002227  -0.6154391673516022 0.1837227755729312 0.7664728129720878  -0.4623260376903659 0.8708046141322785 0.1671943745448991  -0.1544392066952925 0.7636383197292674 0.6269011469732609  -0.1641056681782583 0.4613764778559334 0.8718951057053944  -0.3336485164952268 0.355410022009694 0.8731336574062435  -0.8718951065920466 0.1641056678032274 0.4613764763137587  -0.8731943400382352 0.3377582797706665 0.3513559291822907  -0.7957011867011079 0.5146437958280833 0.3193765565881611  -0.4277534027059846 0.7718932740442339 0.4703273327786989  -0.6965399729219194 0.4061300053727268 0.5915154138802139  -0.3374015048525852 0.8725674427837644 0.3532510188478061  -0.1605613491671107 0.943326269346453 0.2904403599958867  -0.287331603533909 0.1669898560110787 0.9431622011086066  -0.9441476644947904 0.2867736901945969 0.1623146273174604  -0.791816977879269 0.3024635132154947 0.5306050289202711  -0.1353686891350516 0.1343787989494792 0.981640288697827  -0.9818932228329724 0.1342613037393431 0.1336398191890829  -0.2802543662299331 0.5289403232215623 0.8010490775722345  -0.2789964367386595 0.6827871099285202 0.6752501394317442  -0.1346547394138037 0.9817006684315523 0.1346547390716124  -0.4767378916492767 0.3122214288995491 0.8217291293374758  -0.7898371042136486 0.4264978422357383 0.4407458898000718  -0.286680084237198 0.7924645122347757 0.5383442450238065  -0.6871314395076881 0.275966858856205 0.6720808564846434  -0.6278008021688376 -0.1701489621983809 0.7595495266662854  -0.1635151371349984 -0.76252341906098 0.625955937196282  -0.7644391534374589 -0.6255534189675612 0.155934924599384  -0.1676065193620242 -0.4597267893235398 0.872100529667089  -0.4593044981961551 -0.8710901861206808 0.1739001598073337  -0.8708193958538504 -0.1717895959926411 0.4606103716954499  -0.2929620145603324 -0.1590063926247414 0.9428097502302457  -0.1607392284059722 -0.9428719401227997 0.2918139903783231  -0.9432634510246881 -0.288952136743418 0.1635870552103945  -0.7650863937808501 -0.1695017909615275 0.6212181202381726  -0.6749483695154023 -0.3322578327816639 0.6588242793368589  -0.5210355646876631 -0.3336589797242727 0.7856167167136691  -0.5573873506844674 -0.4886178802447361 0.671246533251451  -0.6941293329854042 -0.4754713004623309 0.5404734142637337  -0.5709168026250162 -0.6249457094522762 0.5324442362516657  -0.4251062929143706 -0.6082318716723537 0.6703272559030752  -0.4277232135596694 -0.750439632862549 0.5038781698102354  -0.5832991140598578 -0.7244226991130189 0.367387937399683  -0.6154391649689336 -0.7664728148534241 0.183722775705709  -0.462326037936843 -0.1671943720909158 0.8708046144725838  -0.1544392062155331 -0.626901146970447 0.7636383198286045  -0.1641056681474994 -0.871895105736472 0.4613764778081441  -0.333648514848975 -0.873133657867788 0.3554100224212733  -0.8718951047210259 -0.4613764793696262 0.1641056691525317  -0.873194338517289 -0.3513559312590122 0.3377582815423868  -0.7957011850236174 -0.3193765598502737 0.5146437963972905  -0.427753400413415 -0.4703273324326764 0.7718932755255246  -0.696539969840955 -0.5915154175301763 0.4061300053407316  -0.3374015048376674 -0.3532510173777383 0.8725674433846763  -0.1605613490871011 -0.290440359481277 0.9433262695185143  -0.287331601819323 -0.9431622015966818 0.1669898562046283  -0.9441476638903543 -0.1623146285231287 0.2867736915021765  -0.7918169753933139 -0.5306050324077264 0.3024635136054921  -0.9818932226234303 -0.1336398200555129 0.1342613044093681  -0.135368688141125 -0.9816402886323721 0.1343788004288781  -0.280254361679885 -0.8010490786316032 0.5289403240280133  -0.2789964341530002 -0.6752501401567026 0.6827871102681012  -0.1346547394350791 -0.1346547390928878 0.9817006684257159  -0.4767378904875756 -0.8217291300986849 0.3122214286699663  -0.7898371017299433 -0.440745893122539 0.4264978434018848  -0.2866800836054229 -0.5383442442806557 0.792464512968169  -0.6871314364361604 -0.6720808595933757 0.2759668589331118  0.1717045403032521 0.6293031999014025 0.7579545061763959  0.7645115180886509 0.6248746110623868 0.1582841089920812  0.7619392062808695 0.1791292998408401 0.6223835954382224  0.1502767883031266 0.8745152959438631 0.4611289234666536  0.463001672952186 0.1699505139836765 0.869911647030985  0.4766530229133714 0.8628013010197043 0.1684512116496965  0.9482884669074285 0.2209231545733961 0.2279077517411343  0.164493358511386 0.2888995531270844 0.943121934432985  0.2158837975950358 0.952254363010163 0.2158837975950357  0.8802658510510211 0.2030235259232763 0.4288513488320893  0.7712924297879551 0.3578292529906895 0.5263707946456734  0.6534448769642508 0.3318633189191574 0.680350299717092  0.6447342688587303 0.4950108128814851 0.5824791993621831  0.5151610554037115 0.459350763342223 0.7236062210983618  0.4974467065797482 0.6163848892294
[...]
<PointData  Vectors="f_18"> 
<DataArray  type="Float64"  Name="f_18"  NumberOfComponents="3" format="ascii">5.0000000000000000e-01 0.0000000000000000e+00 0.0000000000000000e+00  0.0000000000000000e+00 5.0000000000000000e-01 0.0000000000000000e+00  5.0000000000000000e-01 0.0000000000000000e+00 0.0000000000000000e+00  0.0000000000000000e+00 -5.0000000000000000e-01 0.0000000000000000e+00  0.0000000000000000e+00 0.0000000000000000e+00 -2.5000000000000000e-01  0.0000000000000000e+00 0.0000000000000000e+00 2.5000000000000000e-01  0.0000000000000000e+00 0.0000000000000000e+00 0.0000000000000000e+00  0.0000000000000000e+00 0.0000000000000000e+00 0.0000000000000000e+00  0.0000000000000000e+00 0.0000000000000000e+00 0.0000000000000000e+00  0.0000000000000000e+00 0.0000000000000000e+00 0.0000000000000000e+00  0.0000000000000000e+00 0.0000000000000000e+00 0.0000000000000000e+00  0.0000000000000000e+00 0.0000000000000000e+00 0.0000000000000000e+00  0.0000000000000000e+00 0.0000000000000000e+00 0.0000000000000000e+00  0.0000000000000000e+00 0.0000000000000000e+00 0.0000000000000000e+00  4.8096988303055838e-01 9.7545161257341695e-02 0.0000000000000000e+00  4.2677669490068737e-01 1.9134171669987785e-01 0.0000000000000000e+00  3.4567085731587510e-01 2.7778511720764026e-01 0.0000000000000000e+00  2.4999999886171040e-01 3.5355339139816605e-01 0.0000000000000000e+00  1.5432914113647472e-01 4.1573480661566292e-01 0.0000000000000000e+00  7.3223304268819553e-02 4.6193976649081664e-01 0.0000000000000000e+00  1.9030116754588603e-02 4.9039264026156193e-01 0.0000000000000000e+00  1.9030116969441589e-02 4.9039264015203082e-01 0.0000000000000000e+00  7.3223305099312630e-02 4.6193976604135706e-01 0.0000000000000000e+00  1.5432914268412487e-01 4.1573480568499138e-01 0.0000000000000000e+00  2.5000000113828957e-01 3.5355338978838147e-01 0.0000000000000000e+00  3.4567085886352528e-01 2.7778511581479193e-01 0.0000000000000000e+00  4.2677669573118043e-01 1.9134171561478636e-01 0.0000000000000000e+00  4.8096988324541140e-01 9.7545160706691655e-02 0.0000000000000000e+00  4.8096988303055838e-01 -9.7545161257341695e-02 0.0000000000000000e+00  4.2677669490068737e-01 -1.9134171669987785e-01 0.0000000000000000e+00  3.4567085731587510e-01 -2.7778511720764026e-01 0.0000000000000000e+00  2.4999999886171040e-01 -3.5355339139816605e-01 0.0000000000000000e+00  1.5432914113647472e-01 -4.1573480661566292e-01 0.0000000000000000e+00  7.3223304268819553e-02 -4.6193976649081664e-01 0.0000000000000000e+00  1.9030116754588603e-02 -4.9039264026156193e-01 0.0000000000000000e+00  1.9030116969441589e-02 -4.9039264015203082e-01 0.0000000000000000e+00  7.3223305099312630e-02 -4.6193976604135706e-01 0.0000000000000000e+00  1.5432914268412487e-01 -4.1573480568499138e-01 0.0000000000000000e+00  2.5000000113828957e-01 -3.5355338978838147e-01 0.0000000000000000e+00  3.4567085886352528e-01 -2.7778511581479193e-01 0.0000000000000000e+00  4.2677669573118043e-01 -1.9134171561478636e-01 0.0000000000000000e+00  4.8096988324541140e-01 -9.7545160706691655e-02 0.0000000000000000e+00  0.0000000000000000e+00 4.9039264015203082e-01 -4.8772580628670847e-02  0.0000000000000000e+00 4.6193976604135706e-01 -9.5670858349938923e-02  0.0000000000000000e+00 4.1573480568499138e-01 -1.3889255860382013e-01  0.0000000000000000e+00 3.5355338978838147e-01 -1.7677669569908303e-01  0.0000000000000000e+00 2.7778511581479193e-01 -2.0786740330783146e-01  0.0000000000000000e+00 1.9134171561478636e-01 -2.3096988324540832e-01  0.0000000000000000e+00 9.7545160706691655e-02 -2.4519632013078096e-01  0.0000000000000000e+00 -9.7545161257341695e-02 -2.4519632007601541e-01  0.0000000000000000e+00 -1.9134171669987785e-01 -2.3096988302067853e-01  0.0000000000000000e+00 -2.7778511720764026e-01 -2.0786740284249569e-01  0.0000000000000000e+00 -3.5355339139816605e-01 -1.7677669489419073e-01  0.0000000000000000e+00 -4.1573480661566292e-01 -1.3889255790739596e-01  0.0000000000000000e+00 -4.6193976649081664e-01 -9.5670857807393178e-02  0.0000000000000000e+00 -4.9039264026156193e-01 -4.8772580353345828e-02  0.0000000000000000e+00 -4.9039264015203082e-01 4.8772580628670847e-02  0.0000000000000000e+00 -4.6193976604135706e-01 9.5670858349938923e-02  0.0000000000000000e+00 -4.1573480568499138e-01 1.3889255860382013e-01  0.0000000000000000e+00 -3.5355338978838147e-01 1.7677669569908303e-01  0.0000000000000000e+00 -2.7778511581479193e-01 2.0786740330783146e-01  0.0000000000000000e+00 -1.9134171561478636e-01 2.3096988324540832e-01  0.0000000000000000e+00 -9.7545160706691655e-02 2.4519632013078096e-01  0.0000000000000000e+00 9.7545161257341695e-02 2.4519632007601541e-01  0.0000000000000000e+00 1.9134171669987785e-01 2.3096988302067853e-01  0.0000000000000000e+00 2.7778511720764026e-01 2.0786740284249569e-01  0.0000000000000000e+00 3.5355339139816605e-01 1.7677669489419073e-01  0.0000000000000000e+00 4.1573480661566292e-01 1.3889255790739596e-01  0.0000000000000000e+00 4.6193976649081664e-01 9.5670857807393178e-02  0.0000000000000000e+00 4.9039264026156193e-01 4.8772580353345828e-02  4.8096988303055838e-01 0.0000000000000000e+00 4.8772580628670847e-02  4.2677669490068737e-01 0.0000000000000000e+00 9.5670858349938923e-02  3.4567085731587510e-01 0.0000000000000000e+00 1.3889255860382013e-01  2.4999999886171040e-01 0.0000000000000000e+00 1.7677669569908303e-01  1.5432914113647472e-01 0.0000000000000000e+00 2.0786740330783146e-01  7.3223304268819553e-02 0.0000000000000000e+00 2.3096988324540832e-01  1.9030116754588603e-02 0.0000000000000000e+00 2.4519632013078096e-01  1.9030116969441589e-02 0.0000000000000000e+00 2.4519632007601541e-01  7.3223305099312630e-02 0.0000000000000000e+00 2.3096988302067853e-01  1.5432914268412487e-01 0.0000000000000000e+00 2.0786740284249569e-01  2.5000000113828957e-01 0.0000000000000000e+00 1.7677669489419073e-01  3.4567085886352528e-01 0.0000000000000000e+00 1.3889255790739596e-01  4.2677669573118043e-01 0.0000000000000000e+00 9.5670857807393178e-02  4.8096988324541140e-01 0.0000000000000000e+00 4.8772580353345828e-02  4.8096988303055838e-01 0.0000000000000000e+00 -4.8772580628670847e-02  4.2677669490068737e-01 0.0000000000000000e+00 -9.5670858349938923e-02  3.4567085731587510e-01 0.0000000000000000e+00 -1.3889255860382013e-01  2.4999999886171040e-01 0.0000000000000000e+00 -1.7677669569908303e-01  1.5432914113647472e-01 0.0000000000000000e+00 -2.0786740330783146e-01  7.3223304268819553e-02 0.0000000000000000e+00 -2.3096988324540832e-01  1.9030116754588603e-02 0.0000000000000000e+00 -2.4519632013078096e-01  1.9030116969441589e-02 0.0000000000000000e+00 -2.4519632007601541e-01  7.3223305099312630e-02 0.0000000000000000e+00 -2.3096988302067853e-01  1.5432914268412487e-01 0.0000000000000000e+00 -2.0786740284249569e-01  2.5000000113828957e-01 0.0000000000000000e+00 -1.7677669489419073e-01  3.4567085886352528e-01 0.0000000000000000e+00 -1.3889255790739596e-01  4.2677669573118043e-01 0.0000000000000000e+00 -9.5670857807393178e-02  4.8096988324541140e-01 0.0000000000000000e+00 -4.8772580353345828e-02  0.0000000000000000e+00 0.0000000000000000e+00 0.0000000000000000e+00  0.0000000000000000e+00 0.0000000000000000e+00 0.0000000000000000e+00  0.0000000000000000e+00 0.0000000000000000e+00 0.0000000000000000e+00  0.0000000000000000e+00 0.0000000000000000e+00 0.0000000000000000e+00  0.0000000000000000e+00 0.0000000000000000e+00 0.0000000000000000e+00  0.0000000000000000e+00 0.0000000000000000e+00 0.0000000000000000e+00  0.0000000000000000e+00 0.0000000000000000e+00 0.0000000000000000e+00  0.0000000000000000e+00 0.0000000000000000e+00 0.0000000000000000e+00  0.0000000000000000e+00 0.0000000000000000e+00 0.0000000000000000e+00  0.0000000000000000e+00 0.0000000000000000e+00 0.0000000000000000e+00  0.0000000000000000e+00 0.0000000000000000e+00 0.0000000000000000e+00  0.0000000000000000e+00 0.0000000000000000e+00 0.0000000000000000e+00  1.9706692380683971e-01 3.7977476322411607e-01 4.2537240491852299e-02  1.3368600118155652e-02 3.1297796870912825e-01 1.9063085469280028e-01  2.9218361158042366e-01 7.7967462458935349e-02 1.5638835395219064e-01  1.4045972829530261e-02 4.3605026436711669e-01 1.1493169768454049e-01  1.0548031181691860e-01 8.6950080258728454e-02 2.1777254626934811e-01  3.7916321103145362e-01 2.3030518512911985e-01 4.2947398602578478e-02  4.4487296975043145e-01 8.1793527147966699e-02 7.2238033682885949e-02  1.2918549988698623e-02 1.4590699513724761e-01 2.3571798498187929e-01  4.2913371014059461e-02 4.7140487506100198e-01 3.9751598275073650e-02  2.9267859561108767e-01 3.1060905987084103e-01 4.2375447256071848e-02  2.2777765201211736e-01 3.2941213905995664e-01 8.3064457853351953e-02  1.3573903064639897e-01 3.9280835758772953e-01 8.3414745228333170e-02  1.5534033117860624e-01 3.3562326529709868e-01 1.2215447003897373e-01  2.4090776742451897e-01 2.7023670660009125e-01 1.1886782438245923e-01  1.6297300032375833e-01 2.6622211684108688e-01 1.5623642688468298e-01  9.0357681397284076e-02 3.3516362724833815e-01 1.5205796778785963e-01  9.1473574904118643e-02 2.5193908406929522e-01 1.8760990809807010e-01  1.7011893013556204e-01 1.8369396799434534e-01 1.8110567430005567e-01  1.8938268435521671e-01 9.1861387786465604e-02 1.9161820324302195e-01  1.0687268256323681e-01 4.3540230706613925e-01 4.1798593636224776e-02  1.1925734282335641e-02 3.8181915986463372e-01 1.5672528674331523e-01  1.3465335164116311e-02 2.3068823892796669e-01 2.1797377642634860e-01  5.5660666279732818e-02 1.7770501100484701e-01 2.1828341435156087e-01  3.8010053844957814e-01 8.2052833901613706e-02 1.1534411907843968e-01  3.8123417773740453e-01 1.6887913988533326e-01 8.7838982295572673e-02  3.1657018925877567e-01 2.5732189791404164e-01 7.9844139147040277e-02  9.1486486763274116e-02 3.8594663702211696e-01 1.1758183319467473e-01  2.4258396693903408e-01 2.0306500268636341e-01 1.4787885347005347e-01  5.6919887738394535e-02 4.3628372139188221e-01 8.8312754711951519e-02  1.2889973423181421e-02 4.7166313467322651e-01 7.2610089998971672e-02  4.1279725194683738e-02 8.3494928005539357e-02 2.3579055027715165e-01  4.4570740618548360e-01 1.4338684509729846e-01 4.0578656829365102e-02  3.1348706322892939e-01 1.5123175660774735e-01 1.3265125723006777e-01  9.1623409990711172e-03 6.7189399474739606e-02 2.4541007217445676e-01  4.8205715052266063e-01 6.7130651869671557e-02 3.3409954797270727e-02  3.9271254895470738e-02 2.6447016161078113e-01 2.0026226939305863e-01  3.8919505856434410e-02 3.4139355496426010e-01 1.6881253485793604e-01  9.0659494232996907e-03 4.9085033421577617e-01 3.3663684767903101e-02  1.1363950866709875e-01 1.5611071444977456e-01 2.0543228233436894e-01  3.1192132559630104e-01 2.1324892111786914e-01 1.1018647245001795e-01  4.1092735349123465e-02 3.9623225611738783e-01 1.3458606125595163e-01  2.3607480757995380e-01 1.3798342942810249e-01 1.6802021412116086e-01  1.9706692360191799e-01 -8.5074481099190455e-02 1.8988738166657135e-01  1.3368600036138668e-02 -3.8126170953048999e-01 1.5648898429907049e-01  2.9218360965408946e-01 -3.1277670948378061e-01 3.8983731149845997e-02  1.4045972666326297e-02 -2.2986339466176989e-01 2.1802513241677224e-01  1.0548031103161092e-01 -4.3554509306034039e-01 4.3475039951833425e-02  3.7916321009763249e-01 -8.5894797996320549e-02 1.1515259292386247e-01  4.2913370987624204e-02 -7.9503196312370697e-02 2.3570243755756143e-01  1.2918549774273652e-02 -4.7143597006139987e-01 7.2953497594580780e-02  4.4487296901950207e-01 -1.4447606837170901e-01 4.0896763802598622e-02  2.9267859497429299e-01 -8.4750895480763755e-02 1.5530453005954314e-01  2.2777765075574999e-01 -1.6612891639083194e-01 1.6470606983421474e-01  1.3573902983469599e-01 -1.6682948986213636e-01 1.9640417917841727e-01  1.5534032935152473e-01 -2.4430894012236806e-01 1.6781163331286275e-01  2.4090776545538109e-01 -2.3773565023116544e-01 1.3511835356593344e-01  1.6297299775978585e-01 -3.1247285472613812e-01 1.3311105906291643e-01  9.0357680137699320e-02 -3.0411593583617685e-01 1.6758181397576880e-01  9.1473573708905284e-02 -3.7521981643127450e-01 1.2596954245255884e-01  1.7011892823150748e-01 -3.6221134955650947e-01 9.1846984349920752e-02  1.8938268288882912e-01 -3.8323640742671206e-01 4.5930693926427249e-02  1.0687268267718961e-01 -8.3597186045457905e-02 2.1770115361814596e-01  1.1925734208241976e-02 -3.1345057348522348e-01 1.9090957995715113e-01  1.3465335159068602e-02 -4.3594755286823600e-01 1.1534411945203603e-01  5.5660665730463348e-02 -4.3656682893389398e-01 8.8852505605318322e-02  3.8010053681824441e-01 -2.3068823968481311e-01 4.1026417288132923e-02  3.8123417640932294e-01 -1.7567796562950611e-01 8.4439570385596699e-02  3.1657018792399449e-01 -1.5968827992513684e-01 1.2866094909932263e-01  9.1486485782619656e-02 -2.3516366621633819e-01 1.9297331888138114e-01  2.4258396479301925e-01 -2.9575770876508817e-01 1.0153250133518291e-01  5.6919887733361249e-02 -1.7662550868886914e-01 2.1814186084616907e-01  1.2889973410334970e-02 -1.4522017974063850e-01 2.3583156737962857e-01  4.1279724702028987e-02 -4.7158110079834092e-01 4.1747464051157077e-02  4.4570740561480671e-01 -8.1157314261564348e-02 7.1693422875544130e-02  3.1348706126050790e-01 -2.6530251620386319e-01 7.5615878401373030e-02  4.8205715031691260e-01 -6.6819910027756446e-02 3.3565326102342023e-02  9.1623408645245766e-03 -4.9082014431618604e-01 3.3594700107219523e-02  3.9271253620299894e-02 -4.0052453931580162e-01 1.3223508100700332e-01  3.8919505135044684e-02 -3.3762507007835130e-01 1.7069677756702531e-01  9.0659494261645240e-03 -6.7327369546443902e-02 2.4542516710642898e-01  1.1363950811327181e-01 -4.1086456504934243e-01 7.8055357167491582e-02  3.1192132363457836e-01 -2.2037294656126949e-01 1.0662446085047120e-01  4.1092735168006135e-02 -2.6917212214032787e-01 1.9811612824204225e-01  2.3607480546941054e-01 -3.3604042979668786e-01 6.8991714733277948e-02  1.4741224580375564e-02 3.1465159995070124e-01 1.8948862654409898e-01  2.9223893064510681e-01 3.1243730553119342e-01 3.9571027248020300e-02  2.9027567703396073e-01 8.9564649920420056e-02 1.5559589885955560e-01  1.1291556551351363e-02 4.3725764797193156e-01 1.1528223086666339e-01  1.0718527457826152e-01 8.4975256991838249e-02 2.1747791175774625e-01  1.1359905212622749e-01 4.3140065050985216e-01 4.2112802912424127e-02  4.4962550823482056e-01 1.1046157728669805e-01 5.6976937935283578e-02  1.3529032497177683e-02 1.4444977656354219e-01 2.3578048360824624e-01  2.3302907032027191e-02 4.7612718150508149e-01 5.3970949398758926e-02  3.8743398426328918e-01 1.0151176296163815e-01 1.0721283720802233e-01  2.9744600612410382e-01 1.7891462649534476e-01 1.3159269866141834e-01  2.1349510361541243e-01 1.6593165945957869e-01 1.7008757492927301e-01  2.0784113872040078e-01 2.4750540644074254e-01 1.4561979984054577e-01  1.3269545650233294e-01 2.2967538167111151e-01 1.8090155527459045e-01  1.2372661294351905e-01 3.0819244461471357e-01 1.5260579167469948e-01  1.8793293476603828e-01 3.2108704124775905e-01 1.1503982414770632e-01  1.0831240593676300e-01 3.7361499624494110e-01 1.1859134834855276e-01  3.7310791436587482e-01 1.9422265185183066e-01 8.0192899194232198e-02  5.5706009623264531e-02 3.5382125702634687e-01 1.5569000711723885e-01  1.5680242686252716e-01 3.8158296941035336e-01 8.0612071094709276e-02  3.7524951539713064e-01 2.3588542727621081e-01 4.1028366711807124e-02  1.6489922998565325e-02 2.3881507977322231e-01 2.1489671715362871e-01  6.7939861099667737e-02 1.8069111248066505e-01 2.1411491734619151e-01  6.1890111192535048e-02 2.7667381856894091e-01 1.8875019372322066e-01  1.9352647400569445e-01 8.4158061130215206e-02 1.9115058445107866e-01  1.4091462704044730e-02 3.8695912477130068e-01 1.5265721765134999e-01  4.4493448577225744e-02 7.9832298074552804e-02 2.3525522305334845e-01  2.7757001493165695e-01 2.5580832962481403e-01 1.0697790779961777e-01  1.9876550086606234e-01 3.7951566396137426e-01 4.0574346497898497e-02  7.6611234845820927e-02 4.3306268744650728e-01 7.7703106949944853e-02  1.3862712501775790e-01 1.5210993184785054e-01 1.9846221688545862e-01  2.4052192800888830e-01 3.2421325377663329e-01 7.8461458804823830e-02  9.3587433033985590e-03 6.6395787217186794e-02 2.4541405205698330e-01  4.8373021244920926e-02 4.1327575527497756e-01 1.1727813039889025e-01  3.1857925264846015e-01 2.6523810585147262e-01 7.1342695631881198e-02  2.8765980749310891e-02 4.4975360383952129e-01 9.1294448706790932e-02  5.7469227761391725e-02 4.6564835294483137e-01 3.3305395655471248e-02  4.3226648621139491e-01 1.7043916337356455e-01 3.4703200438943198e-02  7.0846504651037963e-03 4.9298583442929372e-01 2.9251674394387674e-02  4.8511735141239382e-01 5.8720444965406703e-02 3.1596018882399053e-02  4.3965306960130685e-01 6.2834451191217097e-02 8.0971132113311056e-02  7.5019085627600459e-03 4.7025119900593743e-01 7.9235180873300004e-02  2.8724751664658876e-01 8.5852270124790298e-02 -1.5732580000680566e-01  1.2526929561637253e-02 3.8225575914809279e-01 -1.5621865270934890e-01  1.9368066991753502e-01 3.8096960313086292e-01 -4.4782325005366927e-02  1.0631994186213072e-01 7.5138394079291154e-02 -2.1862882403980938e-01  3.7837313674125039e-01 2.3150083649612874e-01 -4.2487628584587600e-02  1.4187905336871379e-02 2.3832651146130721e-01 -2.1570032525835919e-01  2.5970971641288962e-02 4.7414423345476187e-01 -5.5230788653050547e-02  4.4473949189780132e-01 8.2246679106464757e-02 -7.2224888070279450e-02  2.3302907032027170e-02 1.0794189879751785e-01 -2.3806359075254072e-01  9.1956739724925712e-02 4.4013292551177058e-01 -5.0755881476897177e-02  1.3853310691499801e-01 3.8564621485560341e-01 -8.9457313158353272e-02  2.3143826518157104e-01 3.2672243850713961e-01 -8.2965829690847606e-02  1.6964100875914789e-01 3.2236713433566277e-01 -1.2375270332465353e-01  2.6180298160612581e-01 2.5758052770185574e-01 -1.1483769083555573e-01  1.8630822082694268e-01 2.4872335349173211e-01 -1.5409622238584850e-01  1.0587328915797849e-01 3.0653950378784356e-01 -1.6054352060929880e-01  1.1251126316592998e-01 2.3271485391622004e-01 -1.8680749796500901e-01  5.1447208647359126e-02 4.3191892434488999e-01 -9.7111325895944872e-02  1.9391502635270794e-01 1.6689219549572609e-01 -1.7691062850084951e-01  5.1986448136011991e-02 2.8000216721787291e-01 -1.9079148453566286e-01  1.3466614995070717e-02 4.3315673579604841e-01 -1.1794271356995413e-01  3.6944479244928241e-01 9.0801770184781500e-02 -1.1940753986523310e-01  3.6676158293221284e-01 1.8430933368593011e-01 -9.0345556130534146e-02  2.8501308505844380e-01 1.7591206786133445e-01 -1.3833690925737008e-01  2.9230836731685123e-01 3.1106789788225492e-01 -4.2079030551717377e-02  1.8643380878266486e-01 8.3938854899232654e-02 -1.9347956238765449e-01  4.4276015980693439e-01 1.4915335825019399e-01 -3.9916149047791727e-02  9.1554182350701341e-02 3.7253859827527835e-01 -1.2790416492411433e-01  1.3170220823007450e-02 3.1525029809734734e-01 -1.8975783194510698e-01  4.8302182576301408e-02 1.9571820924371469e-01 -2.1653134373704583e-01  3.1509801223450518e-01 2.6327469024489930e-01 -7.6054965911503403e-02  4.9249604197112294e-02 3.4678662621196260e-01 -1.6210662677846363e-01  4.8182445561715648e-01 6.8405932836290498e-02 -3.3197893548456772e-02  1.1003327879598919e-01 1.5552012963464726e-01 -2.0663787762679664e-01  4.0718241618724324e-02 3.9911104516449103e-01 -1.3261905294710241e-01  6.6677410768897105e-02 1.1992910579729345e-01 -2.2487680193731246e-01  8.8739950428200591e-03 1.6951287229638790e-01 -2.3282417647466208e-01  9.6344969541596187e-03 4.6490132624521630e-01 -8.5219581638199746e-02  6.8452836746376467e-03 5.9517436357370050e-02 -2.4649291720662461e-01  7.9864672741389083e-03 4.9250246263933467e-01 -2.9360222483494826e-02  5.2450593885690240e-02 4.6885662499388181e-01 -3.1417225595608472e-02  5.0225710630948633e-02 6.1245034836511253e-02 -2.3512559962305266e-01  2.9018917715284187e-01 3.1260708686770283e-01 -4.2373991621239747e-02  1.8665825774702888e-01 8.4293214952761306e-02 -1.9336851155204482e-01  1.2355094955178817e-02 3.8224293140001020e-01 -1.5629522858770969e-01  3.6757090111201035e-01 1.0507275033537090e-01 -1.1744601587639708e-01  1.4364