<?xml version="1.0"?>
<VTKFile type="UnstructuredGrid"  version="0.1"  >
<UnstructuredGrid>
<Piece  NumberOfPoints="7225" NumberOfCells="36864">
<Points>
<DataArray  type="Float64"  NumberOfComponents="3"  format="ascii">0 0 0  0.04166666666666666 0 0  0.08333333333333333 0 0  0.125 0 0  0.1666666666666667 0 0  0.2083333333333333 0 0  0.25 0 0  0.2916666666666667 0 0  0.3333333333333333 0 0  0.375 0 0  0.4166666666666667 0 0  0.4583333333333333 0 0  0.5 0 0  0.5416666666666666 0 0  0.5833333333333334 0 0  0.625 0 0  0.6666666666666666 0 0  0.7083333333333334 0 0  0.75 0 0  0.7916666666666666 0 0  0.8333333333333334 0 0  0.875 0 0  0.9166666666666666 0 0  0.9583333333333334 0 0  1 0 0  0 0.0625 0  0.04166666666666666 0.0625 0  0.08333333333333333 0.0625 0  0.125 0.0625 0  0.1666666666666667 0.0625 0  0.2083333333333333 0.0625 0  0.25 0.0625 0  0.2916666666666667 0.0625 0  0.3333333333333333 0.0625 0  0.375 0.0625 0  0.4166666666666667 0.0625 0  0.4583333333333333 0.0625 0  0.5 0.0625 0  0.5416666666666666 0.0625 0  0.5833333333333334 0.0625 0  0.625 0.0625 0  0.6666666666666666 0.0625 0  0.7083333333333334 0.0625 0  0.75 0.0625 0  0.7916666666666666 0.0625 0  0.8333333333333334 0.0625 0  0.875 0.0625 0  0.9166666666666666 0.0625 0  0.9583333333333334 0.0625 0  1 0.0625 0  0 0.125 0  0.04166666666666666 0.125 0  0.08333333333333333 0.125 0  0.125 0.125 0  0.1666666666666667 0.125 0  0.2083333333333333 0.125 0  0.25 0.125 0  0.2916666666666667 0.125 0  0.3333333333333333 0.125 0  0.375 0.125 0  0.4166666666666667 0.125 0  0.4583333333333333 0.125 0  0.5 0.125 0  0.5416666666666666 0.125 0  0.5833333333333334 0.125 0  0.625 0.125 0  0.6666666666666666 0.125 0  0.7083333333333334 0.125 0  0.75 0.125 0  0.7916666666666666 0.125 0  0.8333333333333334 0.125 0  0.875 0.125 0  0.9166666666666666 0.125 0  0.9583333333333334 0.125 0  1 0.125 0  0 0.1875 0  0.04166666666666666 0.1875 0  0.08333333333333333 0.1875 0  0.125 0.1875 0  0.1666666666666667 0.1875 0  0.2083333333333333 0.1875 0  0.25 0.1875 0  0.2916666666666667 0.1875 0  0.3333333333333333 0.1875 0  0.375 0.1875 0  0.4166666666666667 0.1875 0  0.4583333333333333 0.1875 0  0.5 0.1875 0  0.5416666666666666 0.1875 0  0.5833333333333334 0.1875 0  0.625 0.1875 0  0.6666666666666666 0.1875 0  0.7083333333333334 0.1875 0  0.75 0.1875 0  0.7916666666666666 0.1875 0  0.8333333333333334 0.1875 0  0.875 0.1875 0  0.9166666666666666 0.1875 0  0.9583333333333334 0.1875 0  1 0.1875 0  0 0.25 0  0.04166666666666666 0.25 0  0.08333333333333333 0.25 0  0.125 0.25 0  0.1666666666666667 0.25 0  0.2083333333333333 0.25 0  0.25 0.25 0  0.2916666666666667 0.25 0  0.3333333333333333 0.25 0  0.375 0.25 0  0.4166666666666667 0.25 0  0.4583333333333333 0.25 0  0.5 0.25 0  0.5416666666666666 0.25 0  0.5833333333333334 0.25 0  0.625 0.25 0  0.6666666666666666 0.25 0  0.7083333333333334 0.25 0  0.75 0.25 0  0.7916666666666666 0.25 0  0.8333333333333334 0.25 0  0.875 0.25 0  0.9166666666666666 0.25 0  0.9583333333333334 0.25 0  1 0.25 0  0 0.3125 0  0.04166666666666666 0.3125 0  0.08333333333333333 0.3125 0  0.125 0.3125 0  0.1666666666666667 0.3125 0  0.2083333333333333 0.3125 0  0.25 0.3125 0  0.2916666666666667 0.3125 0  0.3333333333333333 0.3125 0  0.375 0.3125 0  0.4166666666666667 0.3125 0  0.4583333333333333 0.3125 0  0.5 0.3125 0  0.5416666666666666 0.3125 0  0.5833333333333334 0.3125 0  0.625 0.3125 0  0.6666666666666666 0.3125 0  0.7083333333333334 0.3125 0  0.75 0.3125 0  0.7916666666666666 0.3125 0  0.8333333333333334 0.3125 0  0.875 0.3125 0  0.9166666666666666 0.3125 0  0.9583333333333334 0.3125 0  1 0.3125 0  0 0.375 0  0.04166666666666666 0.375 0  0.08333333333333333 0.375 0  0.125 0.375 0  0.1666666666666667 0.375 0  0.2083333333333333 0.375 0  0.25 0.375 0  0.2916666666666667 0.375 0  0.3333333333333333 0.375 0  0.375 0.375 0  0.4166666666666667 0.375 0  0.4583333333333333 0.375 0  0.5 0.375 0  0.5416666666666666 0.375 0  0.5833333333333334 0.375 0  0.625 0.375 0  0.6666666666666666 0.375 0  0.7083333333333334 0.375 0  0.75 0.375 0  0.7916666666666666 0.375 0  0.8333333333333334 0.375 0  0.875 0.375 0  0.9166666666666666 0.375 0  0.9583333333333334 0.375 0  1 0.375 0  0 0.4375 0  0.04166666666666666 0.4375 0  0.08333333333333333 0.4375 0  0.125 0.4375 0  0.1666666666666667 0.4375 0  0.2083333333333333 0.4375 0  0.25 0.4375 0  0.2916666666666667 0.4375 0  0.3333333333333333 0.4375 0  0.375 0.4375 0  0.4166666666666667 0.4375 0  0.4583333333333333 0.4375 0  0.5 0.4375 0  0.5416666666666666 0.4375 0  0.5833333333333334 0.4375 0  0.625 0.4375 0  0.6666666666666666 0.4375 0  0.7083333333333334 0.4375 0  0.75 0.4375 0  0.7916666666666666 0.4375 0  0.8333333333333334 0.4375 0  0.875 0.4375 0  0.9166666666666666 0.4375 0  0.9583333333333334 0.4375 0  1 0.4375 0  0 0.5 0  0.04166666666666666 0.5 0  0.08333333333333333 0.5 0  0.125 0.5 0  0.1666666666666667 0.5 0  0.2083333333333333 0.5 0  0.25 0.5 0  0.2916666666666667 0.5 0  0.3333333333333333 0.5 0  0.375 0.5 0  0.4166666666666667 0.5 0  0.4583333333333333 0.5 0  0.5 0.5 0  0.5416666666666666 0.5 0  0.5833333333333334 0.5 0  0.625 0.5 0  0.6666666666666666 0.5 0  0.7083333333333334 0.5 0  0.75 0.5 0  0.7916666666666666 0.5 0  0.8333333333333334 0.5 0  0.875 0.5 0  0.9166666666666666 0.5 0  0.9583333333333334 0.5 0  1 0.5 0  0 0.5625 0  0.04166666666666666 0.5625 0  0.08333333333333333 0.5625 0  0.125 0.5625 0  0.1666666666666667 0.5625 0  0.2083333333333333 0.5625 0  0.25 0.5625 0  0.2916666666666667 0.5625 0  0.3333333333333333 0.5625 0  0.375 0.5625 0  0.4166666666666667 0.5625 0  0.4583333333333333 0.5625 0  0.5 0.5625 0  0.5416666666666666 0.5625 0  0.5833333333333334 0.5625 0  0.625 0.5625 0  0.6666666666666666 0.5625 0  0.7083333333333334 0.5625 0  0.75 0.5625 0  0.7916666666666666 0.5625 0  0.8333333333333334 0.5625 0  0.875 0.5625 0  0.9166666666666666 0.5625 0  0.9583333333333334 0.5625 0  1 0.5625 0  0 0.625 0  0.04166666666666666 0.625 0  0.08333333333333333 0.625 0  0.125 0.625 0  0.1666666666666667 0.625 0  0.2083333333333333 0.625 0  0.25 0.625 0  0.2916666666666667 0.625 0  0.3333333333333333 0.625 0  0.375 0.625 0  0.4166666666666667 0.625 0  0.4583333333333333 0.625 0  0.5 0.625 0  0.5416666666666666 0.625 0  0.5833333333333334 0.625 0  0.625 0.625 0  0.6666666666666666 0.625 0  0.7083333333333334 0.625 0  0.75 0.625 0  0.7916666666666666 0.625 0  0.8333333333333334 0.625 0  0.875 0.625 0  0.9166666666666666 0.625 0  0.9583333333333334 0.625 0  1 0.625 0  0 0.6875 0  0.04166666666666666 0.6875 0  0.08333333333333333 0.6875 0  0.125 0.6875 0  0.1666666666666667 0.6875 0  0.2083333333333333 0.6875 0  0.25 0.6875 0  0.2916666666666667 0.6875 0  0.3333333333333333 0.6875 0  0.375 0.6875 0  0.4166666666666667 0.6875 0  0.4583333333333333 0.6875 0  0.5 0.6875 0  0.5416666666666666 0.6875 0  0.5833333333333334 0.6875 0  0.625 0.6875 0  0.6666666666666666 0.6875 0  0.7083333333333334 0.6875 0  0.75 0.6875 0  0.7916666666666666 0.6875 0  0.8333333333333334 0.6875 0  0.875 0.6875 0  0.9166666666666666 0.6875 0  0.9583333333333334 0.6875 0  1 0.6875 0  0 0.75 0  0.04166666666666666 0.75 0  0.08333333333333333 0.75 0  0.125 0.75 0  0.1666666666666667 0.75 0  0.2083333333333333 0.75 0  0.25 0.75 0  0.2916666666666667 0.75 0  0.3333333333333333 0.75 0  0.375 0.75 0  0.4166666666666667 0.75 0  0.4583333333333333 0.75 0  0.5 0.75 0  0.5416666666666666 0.75 0  0.5833333333333334 0.75 0  0.625 0.75 0  0.6666666666666666 0.75 0  0.7083333333333334 0.75 0  0.75 0.75 0  0.7916666666666666 0.75 0  0.8333333333333334 0.75 0  0.875 0.75 0  0.9166666666666666 0.75 0  0.9583333333333334 0.75 0  1 0.75 0  0 0.8125 0  0.04166666666666666 0.8125 0  0.08333333333333333 0.8125 0  0.125 0.8125 0  0.1666666666666667 0.8125 0  0.2083333333333333 0.8125 0  0.25 0.8125 0  0.2916666666666667 0.8125 0  0.3333333333333333 0.8125 0  0.375 0.8125 0  0.4166666666666667 0.8125 0  0.4583333333333333 0.8125 0  0.5 0.8125 0  0.5416666666666666 0.8125 0  0.5833333333333334 0.8125 0  0.625 0.8125 0  0.6666666666666666 0.8125 0  0.7083333333333334 0.8125 0  0.75 0.8125 0  0.7916666666666666 0.8125 0  0.8333333333333334 0.8125 0  0.875 0.8125 0  0.9166666666666666 0.8125 0  0.9583333333333334 0.8125 0  1 0.8125 0  0 0.875 0  0.04166666666666666 0.875 0  0.08333333333333333 0.875 0  0.125 0.875 0  0.1666666666666667 0.875 0  0.2083333333333333 0.875 0  0.25 0.875 0  0.2916666666666667 0.875 0  0.3333333333333333 0.875 0  0.375 0.875 0  0.4166666666666667 0.875 0  0.4583333333333333 0.875 0  0.5 0.875 0  0.5416666666666666 0.875 0  0.5833333333333334 0.875 0  0.625 0.875 0  0.6666666666666666 0.875 0  0.7083333333333334 0.875 0  0.75 0.875 0  0.7916666666666666 0.875 0  0.8333333333333334 0.875 0  0.875 0.875 0  0.9166666666666666 0.875 0  0.9583333333333334 0.875 0  1 0.875 0  0 0.9375 0  0.04166666666666666 0.9375 0  0.08333333333333333 0.9375 0  0.125 0.9375 0  0.1666666666666667 0.9375 0  0.2083333333333333 0.9375 0  0.25 0.9375 0  0.2916666666666667 0.9375 0  0.3333333333333333 0.9375 0  0.375 0.9375 0  0.4166666666666667 0.9375 0  0.4583333333333333 0.9375 0  0.5 0.9375 0  0.5416666666666666 0.9375 0  0.5833333333333334 0.9375 0  0.625 0.9375 0  0.6666666666666666 0.9375 0  0.7083333333333334 0.9375 0  0.75 0.9375 0  0.7916666666666666 0.9375 0  0.8333333333333334 0.9375 0  0.875 0.9375 0  0.9166666666666666 0.9375 0  0.9583333333333334 0.9375 0  1 0.9375 0  0 1 0  0.04166666666666666 1 0  0.08333333333333333 1 0  0.125 1 0  0.1666666666666667 1 0  0.2083333333333333 1 0  0.25 1 0  0.2916666666666667 1 0  0.3333333333333333 1 0  0.375 1 0  0.4166666666666667 1 0  0.4583333333333333 1 0  0.5 1 0  0.5416666666666666 1 0  0.5833333333333334 1 0  0.625 1 0  0.6666666666666666 1 0  0.7083333333333334 1 0  0.75 1 0  0.7916666666666666 1 0  0.8333333333333334 1 0  0.875 1 0  0.9166666666666666 1 0  0.9583333333333334 1 0  1 1 0  0 0 0.0625  0.04166666666666666 0 0.0625  0.08333333333333333 0 0.0625  0.125 0 0.0625  0.1666666666666667 0 0.0625  0.2083333333333333 0 
[...]
<PointData  Vectors="f_9"> 
<DataArray  type="Float64"  Name="f_9"  NumberOfComponents="3" format="ascii">0.0000000000000000e+00 0.0000000000000000e+00 0.0000000000000000e+00  1.5680310462598494e-03 5.4680607469276910e-03 -6.9892792516068744e-03  2.8301385899684004e-03 1.2407167737316037e-02 -1.5638909391957397e-02  3.9593548910966643e-03 2.0426685215402092e-02 -2.4953947937151277e-02  5.0657491096468502e-03 2.9258629996159267e-02 -3.4479233461342684e-02  6.2098036826077263e-03 3.8748354135008135e-02 -4.3976887098710005e-02  7.4218128550315732e-03 4.8816037254812664e-02 -5.3315828204957609e-02  8.7154218762998063e-03 5.9428003350414767e-02 -6.2419467283759425e-02  1.0095338168098818e-02 7.0579162023985231e-02 -7.1237978989864406e-02  1.1561064770414155e-02 8.2282743605320258e-02 -7.9732772637418570e-02  1.3108110663250837e-02 9.4564439657485427e-02 -8.7867368744793034e-02  1.4727505275931849e-02 1.0745920223490865e-01 -9.5601680556531621e-02  1.6403962113064365e-02 1.2100965310032202e-01 -1.0288803304296909e-01  1.8112687283835156e-02 1.3526541445368168e-01 -1.0966791411888822e-01  1.9814539261745867e-02 1.5028280158370846e-01 -1.1586876797702227e-01  2.1448955557848391e-02 1.6612424231833331e-01 -1.2140025124216899e-01  2.2923752766436455e-02 1.8285645694847538e-01 -1.2614933236920056e-01  2.4100677398092889e-02 2.0054571555590861e-01 -1.2997339988382320e-01  2.4775867168649424e-02 2.1924720267017039e-01 -1.3268995588171226e-01  2.4656502572932001e-02 2.3898353571539821e-01 -1.3405965965306771e-01  2.3342329360750678e-02 2.5970480615207514e-01 -1.3375316177487542e-01  2.0340707647506864e-02 2.8121734526338987e-01 -1.3126959115694209e-01  1.5187267785084014e-02 3.0304446921817002e-01 -1.2569560012384082e-01  7.8325292832525199e-03 3.2407488658144579e-01 -1.1488075008229431e-01  0.0000000000000000e+00 3.4150635094610959e-01 -9.1506350946109677e-02  0.0000000000000000e+00 0.0000000000000000e+00 0.0000000000000000e+00  -2.0769292798736446e-03 4.6884022040663302e-03 -6.4158334679108786e-03  -3.1655614897903943e-03 1.1284524682224545e-02 -1.3877354293958187e-02  -3.5912424727397793e-03 1.9019696514423687e-02 -2.1836140602476118e-02  -3.5658403557157535e-03 2.7566155020335464e-02 -2.9973886277688773e-02  -3.2281950836963468e-03 3.6759489074612031e-02 -3.8099013004976985e-02  -2.6705266213435815e-03 4.6514782833556804e-02 -4.6093402298427198e-02  -1.9549954442477434e-03 5.6793054451440644e-02 -5.3881362342684688e-02  -1.1246392683916795e-03 6.7583996352492820e-02 -6.1410133379358155e-02  -2.1094741359309723e-04 7.8896054313450037e-02 -6.8637425593238530e-02  7.6057473168114761e-04 9.0750600553121785e-02 -7.5523310131128174e-02  1.7659684776538383e-03 1.0317861443912839e-01 -8.2024705751216953e-02  2.7789199504908960e-03 1.1621894205089366e-01 -8.8091287550040823e-02  3.7670138690068314e-03 1.2991751907215066e-01 -9.3661999498504192e-02  4.6879661299840886e-03 1.4432707528104363e-01 -9.8661529049945337e-02  5.4859376880551534e-03 1.5950682842797059e-01 -1.0299612130935823e-01  6.0885237759302916e-03 1.7552148699449965e-01 -1.0654795192768385e-01  6.4059357933052971e-03 1.9243838786768525e-01 -1.0916684917390718e-01  6.3355565230749375e-03 2.1032045606523916e-01 -1.1065721890033313e-01  5.7776982620346426e-03 2.2920998856378552e-01 -1.1075602625762909e-01  4.6715427951302124e-03 2.4909168607870386e-01 -1.0909328777118997e-01  3.0609558744589850e-03 2.6980721238145167e-01 -1.0511582436061349e-01  1.1925108573043572e-03 2.9085412733278321e-01 -9.7921697209764527e-02  -3.4234946566483334e-04 3.1087879993874162e-01 -8.5806283885540763e-02  0.0000000000000000e+00 3.2588135094610959e-01 -6.4443057077845978e-02  0.0000000000000000e+00 0.0000000000000000e+00 0.0000000000000000e+00  -3.1068099864554671e-03 5.2259777978238414e-03 -6.0108325000368260e-03  -5.2607258270183695e-03 1.1669404268022248e-02 -1.2308273629146004e-02  -6.6385781542438026e-03 1.9125600761282776e-02 -1.8955365222714092e-02  -7.4338735830548307e-03 2.7365620355179626e-02 -2.5745558233329427e-02  -7.8076148031962292e-03 3.6245050653391876e-02 -3.2521281009642793e-02  -7.8822150365637847e-03 4.5681706509023236e-02 -3.9178455431577532e-02  -7.7474938670779783e-03 5.5633954424477529e-02 -4.5646833982931040e-02  -7.4687812396655407e-03 6.6087029967590208e-02 -5.1874894222558171e-02  -7.0941909486649706e-03 7.7044579776474997e-02 -5.7819634841691676e-02  -6.6604811283962036e-03 8.8523436318511936e-02 -6.3439599781863740e-02  -6.1976101448026118e-03 1.0055047180054069e-01 -6.8689846196615667e-02  -5.7321996050161451e-03 1.1316079381329579e-01 -7.3517958776139106e-02  -5.2900019373330878e-03 1.2639673239308610e-01 -7.7860445722963398e-02  -4.8972480832587730e-03 1.4030710878055047e-01 -8.1638954296206864e-02  -4.5804370087891393e-03 1.5494616385879001e-01 -8.4755727602141659e-02  -4.3637182721585500e-03 1.7037117824642239e-01 -8.7087574136241200e-02  -4.2625583619211455e-03 1.8663704650214857e-01 -8.8477287973913188e-02  -4.2721149993160045e-03 2.0378449567126972e-01 -8.8720839302825386e-02  -4.3494437592692852e-03 2.2181558585837249e-01 -8.7547555778348357e-02  -4.3922468972799012e-03 2.4064458126384608e-01 -8.4588438991421946e-02  -4.2267775294754931e-03 2.6000300714421321e-01 -7.9322554245930973e-02  -3.6336844302038208e-03 2.7926134091101934e-01 -7.0969999374598011e-02  -2.4160382844586443e-03 2.9707155889879938e-01 -5.8174630636478659e-02  0.0000000000000000e+00 3.1025635094610959e-01 -3.7379763209582278e-02  0.0000000000000000e+00 0.0000000000000000e+00 0.0000000000000000e+00  -3.2350324150556861e-03 5.9751931903408812e-03 -5.3548903181159834e-03  -5.6348059735209337e-03 1.2600050004465190e-02 -1.0595992258202808e-02  -7.3824496405958413e-03 1.9949524972768397e-02 -1.6008862380435793e-02  -8.6077542906573944e-03 2.7965960154875590e-02 -2.1497714933636603e-02  -9.4316240815132939e-03 3.6574187058287334e-02 -2.6951457747382931e-02  -9.9577198147752979e-03 4.5718191066386367e-02 -3.2286011454092600e-02  -1.0269094261419726e-02 5.5364965001366687e-02 -3.7439968228520512e-02  -1.0429701704051468e-02 6.5500745413718933e-02 -4.2365489415160849e-02  -1.0487638069827743e-02 7.6126670126078405e-02 -4.7020735662489772e-02  -1.0478482799596232e-02 8.7255345557367386e-02 -5.1364154139611061e-02  -1.0428074661272116e-02 9.8908399878064573e-02 -5.5350052681081882e-02  -1.0354444446495527e-02 1.1111474855860273e-01 -5.8924874936165855e-02  -1.0268722345700828e-02 1.2390918043561595e-01 -6.2023679922405220e-02  -1.0174796492887401e-02 1.3733075269058262e-01 -6.4566378500873919e-02  -1.0067416362971641e-02 1.5142026189873328e-01 -6.6453258439416810e-02  -9.9284123210043804e-03 1.6621564274704601e-01 -6.7559223697844312e-02  -9.7209331876057965e-03 1.8174341169148325e-01 -6.7725959695348711e-02  -9.3824994829685218e-03 1.9800306331981085e-01 -6.6750875136403556e-02  -8.8200615105592326e-03 2.1493952811216685e-01 -6.4371066018403117e-02  -7.9155227447577723e-03 2.3239657329460184e-01 -6.0239255291226430e-02  -6.5592929251035931e-03 2.5004206992389327e-01 -5.3884025903509311e-02  -4.7348466521644162e-03 2.6725311917426031e-01 -4.4622550600511138e-02  -2.6137462196259040e-03 2.8291262832231973e-01 -3.1250712734089720e-02  0.0000000000000000e+00 2.9463135094610965e-01 -1.0316469341318552e-02  0.0000000000000000e+00 0.0000000000000000e+00 0.0000000000000000e+00  -2.8827849189623170e-03 6.6956190012585695e-03 -4.4955958977281009e-03  -5.0887499576118536e-03 1.3628209631188716e-02 -8.6763814721855237e-03  -6.8037554805094515e-03 2.1017452219777584e-02 -1.2897129515946591e-02  -8.1222778073894789e-03 2.8918311414880358e-02 -1.7121017880020410e-02  -9.1246246374283857e-03 3.7327126166811296e-02 -2.1276646365166907e-02  -9.8829780568290247e-03 4.6225903005349497e-02 -2.5302060831011847e-02  -1.0458771161932522e-02 5.5599508972067765e-02 -2.9147338829771236e-02  -1.0901241201820285e-02 6.5440788509383979e-02 -3.2770387183716526e-02  -1.1247523717331710e-02 7.5751099535254718e-02 -3.6132126479709141e-02  -1.1523450062846238e-02 8.6539382695279402e-02 -3.9192248650996866e-02  -1.1744387090279791e-02 9.7820864525318504e-02 -4.1905570541944367e-02  -1.1915710644529013e-02 1.0961564552374653e-01 -4.4218729515857695e-02  -1.2032662548194769e-02 1.2194703197425291e-01 -4.6066916289477192e-02  -1.2079441833926863e-02 1.3483921617134037e-01 -4.7370327571445346e-02  -1.2027504813215652e-02 1.4831364767476321e-01 -4.8029986004350968e-02  -1.1833314293298289e-02 1.6238308869652149e-01 -4.7922491039689964e-02  -1.1436388924628475e-02 1.7704186391866852e-01 -4.6893109930700179e-02  -1.0759816942343754e-02 1.9225021048913338e-01 -4.4746354509982697e-02  -9.7179855762052434e-03 2.0791007006941611e-01 -4.1232682838673290e-02  -8.2407250606858235e-03 2.2382961755626329e-01 -3.6028559546462967e-02  -6.3282799126892948e-03 2.3967491256332357e-01 -2.8701356894705658e-02  -4.1455513063452338e-03 2.5490611553168663e-01 -1.8622099272797298e-02  -2.0754883909737867e-03 2.6865243159791691e-01 -4.6341256488436015e-03  0.0000000000000000e+00 2.7900635094610965e-01 1.6746824526945148e-02  0.0000000000000000e+00 0.0000000000000000e+00 0.0000000000000000e+00  -2.2220410944687971e-03 7.3216219591449366e-03 -3.4783430737686249e-03  -3.9602990056612419e-03 1.4581454914178135e-02 -6.5683301489222546e-03  -5.3767212624343487e-03 2.2080229743159110e-02 -9.6044886481601987e-03  -6.5369687321767799e-03 2.9942690005439112e-02 -1.2580627432594138e-02  -7.4897465825459275e-03 3.8217475625660330e-02 -1.5452928748383112e-02  -8.2781360336931266e-03 4.6920864706046665e-02 -1.8178367955566353e-02  -8.9395632601197410e-03 5.6057159145577740e-02 -2.0718678638603629e-02  -9.5041707910170099e-03 6.5628046105229695e-02 -2.3038609736277568e-02  -9.9935779793881973e-03 7.5636510117127118e-02 -2.5103093314523282e-02  -1.0420169378021933e-02 8.6088087454831402e-02 -2.6874317677665974e-02  -1.0786651617989413e-02 9.6990787328677594e-02 -2.8308896503903513e-02  -1.1085621903727933e-02 1.0835420818471568e-01 -2.9355071063412855e-02  -1.1298996471246318e-02 1.2018792963282940e-01 -2.9949786949734925e-02  -1.1397295490862132e-02 1.3249896910803843e-01 -3.0015436704504340e-02  -1.1339003926605336e-02 1.4528785151736628e-01 -2.9456007018376099e-02  -1.1070616248443060e-02 1.5854260067585513e-01 -2.8152285080274862e-02  -1.0528687223292638e-02 1.7222972303102105e-01 -2.5955634521081239e-02  -9.6465071198976408e-03 1.8628108848402020e-01 -2.2679591523917228e-02  -8.3702204756956437e-03 2.0057571846159788e-01 -1.8087967783787934e-02  -6.6923296697853317e-03 2.1491621137456993e-01 -1.1876454967128936e-02  -4.7122822046137937e-03 2.2900075316025342e-01 -3.6379850375752782e-03  -2.7203813227041481e-03 2.4238775307369742e-01 7.2290958890916931e-03  -1.2012113163015724e-03 2.5439521040644081e-01 2.1870660524501581e-02  0.0000000000000000e+00 2.6338135094610965e-01 4.3810118395208847e-02  0.0000000000000000e+00 0.0000000000000000e+00 0.0000000000000000e+00  -1.3453331529435935e-03 7.8307614729964028e-03 -2.3328185371338760e-03  -2.4289718885966531e-03 1.5383696191425220e-02 -4.2971089324001163e-03  -3.3635781130377978e-03 2.3006849322151763e-02 -6.1420233389852573e-03  -4.1838322983724033e-03 3.0868726987293676e-02 -7.8739829858234106e-03  -4.9112811997687215e-03 3.9053063384976557e-02 -9.4684702786000038e-03  -5.5643330272015720e-03 4.7601187378333715e-02 -1.0897495580828837e-02  -6.1587152502953187e-03 5.6532914897070616e-02 -1.2133208568727833e-02  -6.7060137053768830e-03 6.5857405514834030e-02 -1.3147311876589631e-02  -7.2120751824041752e-03 7.5578771928768870e-02 -1.3909456861712556e-02  -7.6756969362283094e-03 8.5698733348943582e-02 -1.4385299967360951e-02  -8.0876176983766118e-03 9.6217493558894474e-02 -1.4534381654587831e-02  -8.4297411172575380e-03 1.0713342560474817e-01 -1.4307824326351722e-02  -8.6745814965080697e-03 1.1844177820366941e-01 -1.3645764169827100e-02  -8.7850680505915588e-03 1.3013236969218028e-01 -1.2474373510608497e-02  -8.7150891123908038e-03 1.4218604738705387e-01 -1.0702267671566595e-02  -8.4115642122192490e-03 1.5456954331841852e-01 -8.2160002107391477e-03  -7.8195165900881661e-03 1.6722826859882886e-01 -4.8742017821746808e-03  -6.8927552472530422e-03 1.8007662722661680e-01 -4.9964514528022844e-04  -5.6145192278239985e-03 1.9298573104291403e-01 5.1320944604664378e-03  -4.0344567333412502e-03 2.0576906626323352e-01 1.2310582944286582e-02  -2.3276582225645968e-03 2.1816689758836733e-01 2.1425602990471606e-02  -8.6343796542000999e-04 2.2982282635021004e-01 3.3062725237877615e-02  -1.6596803946745782e-04 2.4018351729095017e-01 4.8364570472185474e-02  0.0000000000000000e+00 2.4775635094610965e-01 7.0873412263472574e-02  0.0000000000000000e+00 0.0000000000000000e+00 0.0000000000000000e+00  -3.1323141765367930e-04 8.2111507947830332e-03 -1.0804249867373238e-03  -6.1053829444491982e-04 1.5992918314223229e-02 -1.8854575847148658e-03  -9.3482810195912025e-04 2.3720378772398808e-02 -2.5275251571202327e-03  -1.2856169223226107e-03 3.1589301945439421e-02 -3.0120817892316863e-03  -1.6587939243878644e-03 3.9705561476888369e-02 -3.3280331911289536e-03  -2.0512167255748804e-03 4.8126323035967852e-02 -3.4593835572355393e-03  -2.4598187250623408e-03 5.6881028583716076e-02 -3.3872974976802872e-03  -2.8798124397320796e-03 6.5982857177210058e-02 -3.0900746709963964e-03  -3.3029540661859763e-03 7.5435120102066003e-02 -2.5423531467075274e-03  -3.7161002614851985e-03 8.5234662542594819e-02 -1.7138909786937493e-03  -4.1000992630842552e-03 9.5373344334514096e-02 -5.6802675622980047e-04  -4.4290358293034441e-03 1.0583818383136902e-01 9.4017970204218944e-04  -4.6699159445851360e-03 1.1661046350557729e-01 2.8661880855650776e-03  -4.7830200357310421e-03 1.2766390558558119e-01 5.2787181037938120e-03  -4.7233925770938353e-03 1.3896189056017685e-01 8.2631740751891222e-03  -4.4443238581764050e-03 1.5045360009182782e-01 1.1926028801336046e-02  -3.9043058468371493e-03 1.6206893395968872e-01 1.6400584396009516e-02  -3.0799264346329808e-03 1.7371212502559241e-01 2.1854787234548170e-02  -1.9885494375654128e-03 1.8525421933869946e-01 2.8502377531538919e-02  -7.2584464841963570e-04 1.9652491693669094e-01 3.6620580860636111e-02  4.7914739257946728e-04 2.0730345416596338e-01 4.6585269584372715e-02  1.2100472200214779e-03 2.1729840158248687e-01 5.8968682663912413e-02  9.3837536850369867e-04 2.2604085902259707e-01 7.4907661997039326e-02  0.0000000000000000e+00 2.3213135094610965e-01 9.7936706131736273e-02  0.0000000000000000e+00 0.0000000000000000e+00 0.0000000000000000e+00  8.2766940194471173e-04 8.4523194799210524e-03 2.5970393900420151e-04  1.4070635844510777e-03 1.6379117945669271e-02 6.4372592557100921e-04  1.7801911341687540e-03 2.4168855746584540e-02 1.2170336244148323e-03  1.9866715454175720e-03 3.2032790308748615e-02 1.9859977053735688e-03  2.0560820447649295e-03 4.0088603333623539e-02 2.9528093119226008e-03  2.0113688240540038e-03 4.8400877968570809e-02 4.1238003806446559e-03  1.8722606946161716e-03 5.7002415085764493e-02 5.5099921931311604e-03  1.6578506047909864e-03 6.5906156498186194e-02 7.1269745721745121e-03  1.3885050291222742e-03 7.5111992449404960e-02 8.9951270401906341e-03  1.0872735846632448e-03 8.4610499581854612e-02 1.1140257386712307e-02  7.8088163684803381e-04 9.4384694161844127e-02 1.3594640826896291e-02  5.0029527339974804e-04 1.0441042580503257e-01 1.6398473302996368e-02  2.8074131012465300e-04 1.1465578668826609e-01 1.9601801060356121e-02  1.6091682092404639e-04 1.2507975934816187e-01 2.3267046282809643e-02  1.8089353183611069e-04 1.3563022833307525e-01 2.7472318931857784e-02  3.7785372060781988e-04 1.4624141774195162e-01 3.2315793383124382e-02  7.7820405128974871e-04 1.5683078423835078e-01 3.7921547224418817e-02  1.3837212083487372e-03 1.6729541141499102e-01 4.4447462144185108e-02  2.1482490385459122e-03 1.7750804024856950e-01 5.2096316996264394e-02  2.9408794767993023e-03 1.8731284279460964e-01 6.1133127545120590e-02  3.4954128409665944e-03 1.9651944875033336e-01 7.1919893493272463e-02  3.3701898404809192e-03 2.0488250418069789e-01 8.5014387684164736e-02  2.0552781537745801e-03 2.1198841407002675e-01 1.0154220790706978e-01  0.0000000000000000e+00 2.1650635094610965e-01 1.2499999999999997e-01  0.0000000000000000e+00 0.0000000000000000e+00 0.0000000000000000e+00  2.0362525149026974e-03 8.5423114047438516e-03 1.6665167109279084e-03  3.5468380197637866e-03 1.6516005458119775e-02 3.2634028152828598e-03  4.6684086622005537e-03 2.4312739193472363e-02 5.0633033291769269e-03  5.4827784772498861e-03 3.2149067763735203e-02 7.0927075969431539e-03  6.0454923243202932e-03 4.0144752017552028e-02 9.3483014302631114e-03  6.3987881182977248e-03 4.8363458001096163e-02 1.1828509648618398e-02  6.5781190187804723e-03 5.6834912634342941e-02 1.4537518124507248e-02  6.6157255060063560e-03 6.5567343910383200e-02 1.7485322113367743e-02  6.5427560700816820e-03 7.4554476533909300e-02 2.0687513825645671e-02  6.3906026290742905e-03 8.3779272064542928e-02 2.4165411134117330e-02  6.1917140661048317e-03 9.3215619029341612e-02 2.7946624136020299e-02  5.9799310742153751e-03 1.0282868467837827e-01 3.2066097470447301e-02  5.7902342011720547e-03 1.1257437844284962e-01 3.6567698421502960e-02  5.6576448050264603e-03 1.2239823748046239e-01 4.1506483500292901e-02  5.6148052682859868e-03 1.3223397500706688e-01 4.6951859481958111e-02  5.6874182173508123e-03 1.4200189935268426e-01 5.2991952919288127e-02  5.8861512707825726e-03 1.5160738265702345e-01 5.9739603263839841e-02  6.1927366519592452e-03 1.6093949470956781e-01 6.7340509947704144e-02  6.5369678991254246e-03 1.6986978484139240e-01 7.5984422803918747e-02  6.7612663150372274e-03 1.7825084075329456e-01 8.5922137370806465e-02  6.5748709419703412e-03 1.8591210509497547e-01 9.7499620775470822e-02  5.5270211685460287e-03 1.9263838451052845e-01 1.1125738661239791e-01  3.1442205502602519e-03 1.9805211355504782e-01 1.2830356744624469e-01  0.0000000000000000e+00 2.0088135094610965e-01 1.5206329386826370e-01  0.0000000000000000e+00 0.0000000000000000e+00 0.0000000000000000e+00  3.2716780638546820e-03 8.4662561466344044e-03 3.1137895346242338e-03  5.7321727333257246e-03 1.6377707389496145e-02 5.9386028462566258e-03  7.6168134024530293e-03 2.4120185439933280e-02 8.9732968361716237e-03  9.0517104393360026e-03 3.1904022065426793e-02 1.2269600626593285e-02  1.0119667941796343e-02 3.9839779990407977e-02 1.5820734298111802e-02  1.0883115803442953e-02 4.7980891067475627e-02 1.9618324587938690e-02  1.1393758432038126e-02 5.6347198074228659e-02 2.3660446613242625e-02  1.1697099573286244e-02 6.4937786916668849e-02 2.7952017072128528e-02  1.1834771769325578e-02 7.3737777282985278e-02 3.2504210645514051e-02  1.1845824163404099e-02 8.2721620084915709e-02 3.7334096418992518e-02  1.1767393009332985e-02 9.1854313785104905e-02 4.2464720319119881e-02  1.1634843414767641e-02 1.0109134846015833e-01 4.7925692884590011e-02  1.1481287655517114e-02 1.1037787131764537e-01 5.3754350902472964e-02  1.1336240206899535e-02 1.1964741769711529e-01 5.9997628953219279e-02  1.1222986541757005e-02 1.2882050665385081e-01 6.6714881228562062e-02  1.1153944171162758e-02 1.3780342508089738e-01 7.3982027684062382e-02  1.1122779025679711e-02 1.4648757822753219e-01 8.1897540344247857e-02  1.1091204958168076e-02 1.5474977314188976e-01 9.0590895529546411e-02  1.0967356389115212e-02 1.6245349765519615e-01 1.0023428454403556e-01  1.0572720801644470e-02 1.6945022329539736e-01 1.1105979161727636e-01  9.6016536436996369e-03 1.7557708198972100e-01 1.2339326416168434e-01  7.6080358717140941e-03 1.8063472671138286e-01 1.3775419947794104e-01  4.1713869635164481e-03 1.8426708772871711e-01 1.5522662930170417e-01  0.0000000000000000e+00 1.8525635094610965e-01 1.7912658773652737e-01  0.0000000000000000e+00 0.0000000000000000e+00 0.0000000000000000e+00  4.4886859064307864e-03 8.2047875107163354e-03 4.5669356993507000e-03  7.8768321707987608e-03 1.5937667484526241e-02 8.6225375590722238e-03  1.0496605835198560e-02 2.3567041140581859e-02 1.2895678757515416e-02  1.2520179980587621e-02 3.1280045082532223e-02 1.74