# vtk DataFile Version 2.0
Really cool data
ASCII
DATASET POLYDATA
POINTS 2 double
0.0 0.0 0.0
0.0 0.0 1.0
POINT_DATA 2
VECTORS displacement double
1.0 1.0 1.0
1.0 0.0 1.0