<?xml version="1.0"?>
<VTKFile type="UnstructuredGrid"  version="0.1"  >
<UnstructuredGrid>
<Piece  NumberOfPoints="6501" NumberOfCells="30207">
<Points>
<DataArray  type="Float64"  NumberOfComponents="3"  format="ascii">-75 -75 75  -75 -75 -75  -75 75 75  -75 75 -75  75 -75 -75  75 -75 75  75 75 75  75 75 -75  7.041719095097281e-16 -1.139817434823012e-31 18.75  7.041719095097281e-16 -1.139817434823012e-31 -18.75  -75 -75 -60  -75 -75 -45  -75 -75 -30  -75 -75 -15  -75 -75 0  -75 -75 15  -75 -75 30  -75 -75 45  -75 -75 60  -75 -60 75  -75 -45 75  -75 -30 75  -75 -15 75  -75 0 75  -75 15 75  -75 30 75  -75 45 75  -75 60 75  -75 75 -60  -75 75 -45  -75 75 -30  -75 75 -15  -75 75 0  -75 75 15  -75 75 30  -75 75 45  -75 75 60  -75 -60 -75  -75 -45 -75  -75 -30 -75  -75 -15 -75  -75 0 -75  -75 15 -75  -75 30 -75  -75 45 -75  -75 60 -75  -60 -75 -75  -45 -75 -75  -30 -75 -75  -15 -75 -75  0 -75 -75  15 -75 -75  30 -75 -75  45 -75 -75  60 -75 -75  75 -75 -60  75 -75 -45  75 -75 -30  75 -75 -15  75 -75 0  75 -75 15  75 -75 30  75 -75 45  75 -75 60  -60 -75 75  -45 -75 75  -30 -75 75  -15 -75 75  0 -75 75  15 -75 75  30 -75 75  45 -75 75  60 -75 75  -60 75 75  -45 75 75  -30 75 75  -15 75 75  0 75 75  15 75 75  30 75 75  45 75 75  60 75 75  75 -60 75  75 -45 75  75 -30 75  75 -15 75  75 0 75  75 15 75  75 30 75  75 45 75  75 60 75  -60 75 -75  -45 75 -75  -30 75 -75  -15 75 -75  0 75 -75  15 75 -75  30 75 -75  45 75 -75  60 75 -75  75 75 -60  75 75 -45  75 75 -30  75 75 -15  75 75 0  75 75 15  75 75 30  75 75 45  75 75 60  75 -60 -75  75 -45 -75  75 -30 -75  75 -15 -75  75 0 -75  75 15 -75  75 30 -75  75 45 -75  75 60 -75  0.9805396205190569 -1.587163787576392e-16 -18.68171939184529  1.942696747602859 -3.144572502236555e-16 -18.48052546962055  2.870778468261158 -4.646824597017474e-16 -18.15638520918906  3.753374972245576 -6.075451427439739e-16 -17.72322179053974  4.583553521099566 -7.419231222147345e-16 -17.19633695381942  5.358098276890152 -8.672958621349493e-16 -16.59048773683694  6.076430186718484 -9.835696333199008e-16 -15.91883883460424  6.739612902708683 -1.090916605266737e-15 -15.1926094921238  7.349614741943911 -1.189655382296128e-15 -14.4211162173385  7.908811913900277 -1.280170592785475e-15 -13.61200134131612  8.419684950420903 -1.362863751393947e-15 -12.77150957264676  8.884644627693605 -1.438125081686729e-15 -11.90475215965691  9.305939892377546 -1.506318612472339e-15 -11.015934932931  9.685615209021067 -1.567775273784423e-15 -10.10854549626992  10.02549646921399 -1.622790616047541e-15 -9.18550268774956  10.3271921540169 -1.671624998235358e-15 -8.249275329168904  10.59210235777688 -1.714505048522847e-15 -7.301975966755837  10.82143122789693 -1.751625677866481e-15 -6.345434788638409  11.01620006130624 -1.783152199882197e-15 -5.381258881867347  11.1772598415239 -1.809222360174256e-15 -4.410879807839314  11.30530240039856 -1.829948143045416e-15 -3.43559251595605  11.40086985235098 -1.84541729858342e-15 -2.456587838651782  11.46436220481549 -1.855694574535446e-15 -1.474979687628715  11.49604296357921 -1.860822623623978e-15 -0.4918299948331336  11.49604296357921 -1.860822623623978e-15 0.4918299948331401  11.46436220481549 -1.855694574535447e-15 1.474979687628722  11.40086985235098 -1.845417298583419e-15 2.456587838651786  11.30530240039856 -1.829948143045417e-15 3.435592515956057  11.17725984152389 -1.809222360174256e-15 4.410879807839319  11.01620006130625 -1.783152199882197e-15 5.381258881867353  10.82143122789693 -1.751625677866481e-15 6.345434788638418  10.59210235777688 -1.714505048522847e-15 7.301975966755843  10.3271921540169 -1.671624998235358e-15 8.249275329168912  10.02549646921399 -1.622790616047542e-15 9.185502687749537  9.685615209021094 -1.567775273784428e-15 10.10854549626985  9.305939892377557 -1.50631861247234e-15 11.01593493293097  8.88464462769362 -1.438125081686732e-15 11.90475215965687  8.419684950420928 -1.362863751393951e-15 12.77150957264671  7.908811913900275 -1.280170592785475e-15 13.61200134131612  7.349614741943932 -1.189655382296131e-15 14.42111621733847  6.739612902708688 -1.090916605266738e-15 15.19260949212379  6.076430186718487 -9.835696333199014e-16 15.91883883460423  5.358098276890194 -8.672958621349565e-16 16.5904877368369  4.5835535210996 -7.419231222147402e-16 17.19633695381939  3.75337497224557 -6.075451427439731e-16 17.72322179053974  2.870778468261154 -4.646824597017469e-16 18.15638520918906  1.942696747602864 -3.144572502236563e-16 18.48052546962055  0.9805396205190339 -1.587163787576355e-16 18.68171939184529  -75 -60.74998678227594 -5.413455946347426  -75 61.50907427704607 6.421476138283367  -75 -7.500000000000028 62.00961894323339  -75 7.5 -62.00961894323342  -75 -61.71300729890635 22.69138357274757  -75 22.5 62.00961894323342  -75 62.00961894323342 -22.5  -75 -22.5 -62.00961894323342  -75 -61.69123533526345 -37.19377007443569  -75 -37.81297757236224 62.15819488684329  -75 61.55555812566854 38.80088482059872  -75 36.89682048485673 -63.06116146554901  -75 -61.8617769373551 50.59895212827973  -75 52.43643946078686 62.29841932416252  -75 62.55753893776773 -52.41101524510159  -75 -51.68339181158553 -60.67570757846403  -75 7.499999999999986 62.00961894323339  -75 -4.263256414560601e-14 49.01923788646684  -75 -14.89032811082181 49.08255698120644  -75 -7.372049462625455 36.10272910689648  -75 7.521325089562325 36.04116887589964  -75 0.02487927115602417 23.05283982683295  -75 -14.87357000914056 23.38396559881194  -75 -7.47478178966422 10.1080703627967  -75 7.508349580248506 10.06048466625522  -75 0.005594631763898406 -2.930225407813197  -75 15.00166002523943 -2.939375521209698  -75 -15.0000000000002 -2.942286340599438  -75 -7.499067561372897 -15.93065724190166  -75 -22.49984459356236 -15.93233237145526  -75 22.49999999999983 10.04809471616706  -75 30.00027667087308 -2.941801204034562  -75 22.50032278268527 -15.93210140470696  -75 -29.99997409892722 -2.942230502947609  -75 -14.99981869248943 -28.92265759057008  -75 -29.9999713678618 -28.9229867288372  -75 0.0001856243560780513 -28.92264828429482  -75 -7.500000000000313 -41.91342951089919  -75 37.08924740778036 10.28535031461668  -75 29.93154123462985 23.07801837267527  -75 37.23086202245943 -15.77704764293443  -75 29.95519746752396 -28.89701749628422  -75 44.40917396271716 22.98083521826123  -75 36.95502393536609 35.77463813597433  -75 7.499999999999673 -41.91342951089925  -75 47.18540537260324 -29.51249923573116  -75 37.34603163781514 -41.77770414839027  -75 46.96555139691444 -1.862982746252769  -75 15.00355418159366 49.02128989416674  -75 22.49999999999977 -41.91342951089926  -75 7.501449250445248 -15.92967605234318  -75 14.99285918750167 -28.91805037657127  -75 -22.50000000000035 -41.91342951089915  -75 -37.21636144111822 -41.74196933477168  -75 -47.14360734872791 -29.46664815900601  -75 -37.50000000000028 -15.93266739736594  -75 -45.0000000000002 -2.942286340599296  -75 -37.50870921622847 10.31556869839858  -75 -52.47945466058451 9.441084889992254  -75 -45.7485354069844 23.28307627838103  -75 -53.71886464532696 36.23511359644581  -75 -38.46001423469239 36.66056870324702  -75 -30.15546625532943 23.35000756552392  -75 -46.70857307950239 49.36738862378702  -75 61.92760747168484 -7.850179358091623  -75 -62.00961894323342 -22.5  -75 37.48940657679779 62.05775234005495  -75 47.25145112991386 47.74814336348328  -75 62.07675513402967 -37.40391908013879  -75 59.6283489365845 22.74228313853121  -75 -36.8850172563118 -62.76806249597166  -75 -7.5 -62.00961894323342  -75 22.5 -62.00961894323342  -75 -22.50208356154835 10.21218256366402  -75 -22.5338842805307 62.04493478295831  -75 -30.0975177852475 49.08895658255608  -75 14.99999999999983 23.03847577293367  -75 30.28323930394518 48.77338325110215  -75 22.44911395751615 35.95449571712528  -75 -22.24988821155249 36.34211800948268  -75 -63.01622611762248 -51.97730985283301  -75 62.51250118488849 52.63110876075615  -75 51.61400847913646 -60.92184840345482  -75 -52.06399726458147 62.66077037286985  -75 50.70796755057384 -45  -75 -50.70349167241905 -44.97514357763148  -75 50.88457268119886 -15.00000000000015  -75 -50.88457268119912 -15  -75 49.92027919620851 12.11339241268794  -75 -64.89027798624846 7.719648714930884  -75 -30.00000000000038 -51.96152422706613  -75 14.99999999999984 -51.96152422706633  -75 -15.00000000000023 -51.96152422706625  -75 30 -51.96152422706643  -75 -1.84741111297626e-13 -51.96152422706631  -75 49.95991121805002 33.60935693536976  -75 -65.71949345690466 37.50000000000001  -75 -64.01923788646684 -64.01923788646684  -75 -64.01923788646684 64.01923788646684  -75 64.01923788646681 64.01923788646681  -75 64.01923788646681 -64.01923788646681  -75 -41.53452651914353 -52.2922079525768  -75 41.31296563047643 -52.5444476488921  62.00961894323339 -75 -7.500000000000028  -5.413455946347383 -75 -60.74998678227598  -5.413455946347597 -75 60.74998678227573  -62.00961894323342 -75 7.5  -62.00961894323342 -75 -22.5  22.69138357274761 -75 -61.7130072989064  62.00961894323339 -75 22.5  22.73077533125711 -75 61.40108873361871  -62.99038105676656 -75 37.02111862104732  -37.19377007443565 -75 -61.6912353352635  62.15819488684332 -75 -37.81297757236231  -37.19377007443576 -75 61.69123533526323  62.3445554337722 -75 51.91987298107784  -60.67570757846403 -75 -51.68339181158555  50.59895212827978 -75 -61.8617769373552  62.00961894323339 -75 7.499999999999986  49.01923788646684 -75 -4.263256414560601e-14  49.01923788646687 -75 -15.00000000000005  36.02885682970029 -75 -7.500000000000085  36.02885682970023 -75 7.499999999999915  23.03847577293369 -75 -1.4210854715202e-13  23.03847577293364 -75 14.99999999999986  10.04809471616707 -75 7.499999999999787  10.04809471616717 -75 -7.500000000000213  -2.942286340599452 -75 -2.842170943040401e-13  -2.942286340599537 -75 14.99999999999972  -2.942286340599367 -75 -15.00000000000028  -15.93266739736599 -75 -7.500000000000369  -15.93266739736589 -75 -22.50000000000038  36.16638771814134 -75 -22.72031971396727  -2.942286340599253 -75 -30.00000000000028  -28
[...]
<PointData  Vectors="disp"> 
<DataArray  type="Float64"  Name="disp"  NumberOfComponents="3" format="ascii">0.0000000000000000e+00 0.0000000000000000e+00 0.0000000000000000e+00  0.0000000000000000e+00 0.0000000000000000e+00 0.0000000000000000e+00  0.0000000000000000e+00 0.0000000000000000e+00 0.0000000000000000e+00  0.0000000000000000e+00 0.0000000000000000e+00 0.0000000000000000e+00  0.0000000000000000e+00 0.0000000000000000e+00 0.0000000000000000e+00  0.0000000000000000e+00 0.0000000000000000e+00 0.0000000000000000e+00  0.0000000000000000e+00 0.0000000000000000e+00 0.0000000000000000e+00  0.0000000000000000e+00 0.0000000000000000e+00 0.0000000000000000e+00  4.5924254968025751e-18 -2.2496396739927867e-32 3.5000000000000000e+00  4.5924254968025751e-18 -2.2496396739927867e-32 -3.5000000000000000e+00  0.0000000000000000e+00 0.0000000000000000e+00 0.0000000000000000e+00  0.0000000000000000e+00 0.0000000000000000e+00 0.0000000000000000e+00  0.0000000000000000e+00 0.0000000000000000e+00 0.0000000000000000e+00  0.0000000000000000e+00 0.0000000000000000e+00 0.0000000000000000e+00  0.0000000000000000e+00 0.0000000000000000e+00 0.0000000000000000e+00  0.0000000000000000e+00 0.0000000000000000e+00 0.0000000000000000e+00  0.0000000000000000e+00 0.0000000000000000e+00 0.0000000000000000e+00  0.0000000000000000e+00 0.0000000000000000e+00 0.0000000000000000e+00  0.0000000000000000e+00 0.0000000000000000e+00 0.0000000000000000e+00  0.0000000000000000e+00 0.0000000000000000e+00 0.0000000000000000e+00  0.0000000000000000e+00 0.0000000000000000e+00 0.0000000000000000e+00  0.0000000000000000e+00 0.0000000000000000e+00 0.0000000000000000e+00  0.0000000000000000e+00 0.0000000000000000e+00 0.0000000000000000e+00  0.0000000000000000e+00 0.0000000000000000e+00 0.0000000000000000e+00  0.0000000000000000e+00 0.0000000000000000e+00 0.0000000000000000e+00  0.0000000000000000e+00 0.0000000000000000e+00 0.0000000000000000e+00  0.0000000000000000e+00 0.0000000000000000e+00 0.0000000000000000e+00  0.0000000000000000e+00 0.0000000000000000e+00 0.0000000000000000e+00  0.0000000000000000e+00 0.0000000000000000e+00 0.0000000000000000e+00  0.0000000000000000e+00 0.0000000000000000e+00 0.0000000000000000e+00  0.0000000000000000e+00 0.0000000000000000e+00 0.0000000000000000e+00  0.0000000000000000e+00 0.0000000000000000e+00 0.0000000000000000e+00  0.0000000000000000e+00 0.0000000000000000e+00 0.0000000000000000e+00  0.0000000000000000e+00 0.0000000000000000e+00 0.0000000000000000e+00  0.0000000000000000e+00 0.0000000000000000e+00 0.0000000000000000e+00  0.0000000000000000e+00 0.0000000000000000e+00 0.0000000000000000e+00  0.0000000000000000e+00 0.0000000000000000e+00 0.0000000000000000e+00  0.0000000000000000e+00 0.0000000000000000e+00 0.0000000000000000e+00  0.0000000000000000e+00 0.0000000000000000e+00 0.0000000000000000e+00  0.0000000000000000e+00 0.0000000000000000e+00 0.0000000000000000e+00  0.0000000000000000e+00 0.0000000000000000e+00 0.0000000000000000e+00  0.0000000000000000e+00 0.0000000000000000e+00 0.0000000000000000e+00  0.0000000000000000e+00 0.0000000000000000e+00 0.0000000000000000e+00  0.0000000000000000e+00 0.0000000000000000e+00 0.0000000000000000e+00  0.0000000000000000e+00 0.0000000000000000e+00 0.0000000000000000e+00  0.0000000000000000e+00 0.0000000000000000e+00 0.0000000000000000e+00  0.0000000000000000e+00 0.0000000000000000e+00 0.0000000000000000e+00  0.0000000000000000e+00 0.0000000000000000e+00 0.0000000000000000e+00  0.0000000000000000e+00 0.0000000000000000e+00 0.0000000000000000e+00  0.0000000000000000e+00 0.0000000000000000e+00 0.0000000000000000e+00  0.0000000000000000e+00 0.0000000000000000e+00 0.0000000000000000e+00  0.0000000000000000e+00 0.0000000000000000e+00 0.0000000000000000e+00  0.0000000000000000e+00 0.0000000000000000e+00 0.0000000000000000e+00  0.0000000000000000e+00 0.0000000000000000e+00 0.0000000000000000e+00  0.0000000000000000e+00 0.0000000000000000e+00 0.0000000000000000e+00  0.0000000000000000e+00 0.0000000000000000e+00 0.0000000000000000e+00  0.0000000000000000e+00 0.0000000000000000e+00 0.0000000000000000e+00  0.0000000000000000e+00 0.0000000000000000e+00 0.0000000000000000e+00  0.0000000000000000e+00 0.0000000000000000e+00 0.0000000000000000e+00  0.0000000000000000e+00 0.0000000000000000e+00 0.0000000000000000e+00  0.0000000000000000e+00 0.0000000000000000e+00 0.0000000000000000e+00  0.0000000000000000e+00 0.0000000000000000e+00 0.0000000000000000e+00  0.0000000000000000e+00 0.0000000000000000e+00 0.0000000000000000e+00  0.0000000000000000e+00 0.0000000000000000e+00 0.0000000000000000e+00  0.0000000000000000e+00 0.0000000000000000e+00 0.0000000000000000e+00  0.0000000000000000e+00 0.0000000000000000e+00 0.0000000000000000e+00  0.0000000000000000e+00 0.0000000000000000e+00 0.0000000000000000e+00  0.0000000000000000e+00 0.0000000000000000e+00 0.0000000000000000e+00  0.0000000000000000e+00 0.0000000000000000e+00 0.0000000000000000e+00  0.0000000000000000e+00 0.0000000000000000e+00 0.0000000000000000e+00  0.0000000000000000e+00 0.0000000000000000e+00 0.0000000000000000e+00  0.0000000000000000e+00 0.0000000000000000e+00 0.0000000000000000e+00  0.0000000000000000e+00 0.0000000000000000e+00 0.0000000000000000e+00  0.0000000000000000e+00 0.0000000000000000e+00 0.0000000000000000e+00  0.0000000000000000e+00 0.0000000000000000e+00 0.0000000000000000e+00  0.0000000000000000e+00 0.0000000000000000e+00 0.0000000000000000e+00  0.0000000000000000e+00 0.0000000000000000e+00 0.0000000000000000e+00  0.0000000000000000e+00 0.0000000000000000e+00 0.0000000000000000e+00  0.0000000000000000e+00 0.0000000000000000e+00 0.0000000000000000e+00  0.0000000000000000e+00 0.0000000000000000e+00 0.0000000000000000e+00  0.0000000000000000e+00 0.0000000000000000e+00 0.0000000000000000e+00  0.0000000000000000e+00 0.0000000000000000e+00 0.0000000000000000e+00  0.0000000000000000e+00 0.0000000000000000e+00 0.0000000000000000e+00  0.0000000000000000e+00 0.0000000000000000e+00 0.0000000000000000e+00  0.0000000000000000e+00 0.0000000000000000e+00 0.0000000000000000e+00  0.0000000000000000e+00 0.0000000000000000e+00 0.0000000000000000e+00  0.0000000000000000e+00 0.0000000000000000e+00 0.0000000000000000e+00  0.0000000000000000e+00 0.0000000000000000e+00 0.0000000000000000e+00  0.0000000000000000e+00 0.0000000000000000e+00 0.0000000000000000e+00  0.0000000000000000e+00 0.0000000000000000e+00 0.0000000000000000e+00  0.0000000000000000e+00 0.0000000000000000e+00 0.0000000000000000e+00  0.0000000000000000e+00 0.0000000000000000e+00 0.0000000000000000e+00  0.0000000000000000e+00 0.0000000000000000e+00 0.0000000000000000e+00  0.0000000000000000e+00 0.0000000000000000e+00 0.0000000000000000e+00  0.0000000000000000e+00 0.0000000000000000e+00 0.0000000000000000e+00  0.0000000000000000e+00 0.0000000000000000e+00 0.0000000000000000e+00  0.0000000000000000e+00 0.0000000000000000e+00 0.0000000000000000e+00  0.0000000000000000e+00 0.0000000000000000e+00 0.0000000000000000e+00  0.0000000000000000e+00 0.0000000000000000e+00 0.0000000000000000e+00  0.0000000000000000e+00 0.0000000000000000e+00 0.0000000000000000e+00  0.0000000000000000e+00 0.0000000000000000e+00 0.0000000000000000e+00  0.0000000000000000e+00 0.0000000000000000e+00 0.0000000000000000e+00  0.0000000000000000e+00 0.0000000000000000e+00 0.0000000000000000e+00  0.0000000000000000e+00 0.0000000000000000e+00 0.0000000000000000e+00  0.0000000000000000e+00 0.0000000000000000e+00 0.0000000000000000e+00  0.0000000000000000e+00 0.0000000000000000e+00 0.0000000000000000e+00  0.0000000000000000e+00 0.0000000000000000e+00 0.0000000000000000e+00  0.0000000000000000e+00 0.0000000000000000e+00 0.0000000000000000e+00  0.0000000000000000e+00 0.0000000000000000e+00 0.0000000000000000e+00  0.0000000000000000e+00 0.0000000000000000e+00 0.0000000000000000e+00  0.0000000000000000e+00 0.0000000000000000e+00 0.0000000000000000e+00  0.0000000000000000e+00 0.0000000000000000e+00 0.0000000000000000e+00  0.0000000000000000e+00 0.0000000000000000e+00 0.0000000000000000e+00  0.0000000000000000e+00 0.0000000000000000e+00 0.0000000000000000e+00  0.0000000000000000e+00 0.0000000000000000e+00 0.0000000000000000e+00  0.0000000000000000e+00 0.0000000000000000e+00 0.0000000000000000e+00  0.0000000000000000e+00 0.0000000000000000e+00 0.0000000000000000e+00  0.0000000000000000e+00 0.0000000000000000e+00 0.0000000000000000e+00  6.3948236120808062e-03 -3.1325601070586689e-17 -3.4872542864777878e+00  1.2669761397409950e-02 -6.2063930965195167e-17 -3.4496980876625027e+00  1.8722468271268423e-02 -9.1713643362187006e-17 -3.3891919057152911e+00  2.4478532427688542e-02 -1.1991022554157381e-16 -3.3083347342340845e+00  2.9892740354997175e-02 -1.4643219517396078e-16 -3.2099828980462917e+00  3.4944119197109692e-02 -1.7117681489505580e-16 -3.0968910442095625e+00  3.9628892522077075e-02 -1.9412558552366462e-16 -2.9715165824594583e+00  4.3953997191578373e-02 -2.1531248788159284e-16 -2.8359537718631094e+00  4.7932270056155940e-02 -2.3480040440055157e-16 -2.6919416939031868e+00  5.1579208134132241e-02 -2.5266524857608057e-16 -2.5409069170456760e+00  5.4910988807092845e-02 -2.6898626672248956e-16 -2.3840151202273954e+00  5.7943334528436558e-02 -2.8384047664869652e-16 -2.2222204031359567e+00  6.0690912341592698e-02 -2.9729972614585643e-16 -2.0563078541471200e+00  6.3167055711006975e-02 -3.0942933035218878e-16 -1.8869284926370518e+00  6.5383672625308628e-02 -3.2028762158833047e-16 -1.7146271683799179e+00  6.7351253178371095e-02 -3.2992598649382069e-16 -1.5398647281115290e+00  6.9078928420284000e-02 -3.3838915431371982e-16 -1.3630355137944230e+00  7.0574551486284332e-02 -3.4571559431575283e-16 -1.1844811605458363e+00  7.1844783008518959e-02 -3.5193793418727574e-16 -1.0045016579485715e+00  7.2895172879503714e-02 -3.5708336056070844e-16 -8.2336423079667198e-01  7.3730233046077578e-02 -3.6117397560106895e-16 -6.4131060297846265e-01  7.4353499037071599e-02 -3.6422709840462238e-16 -4.5856306321499934e-01  7.4767579596622766e-02 -3.6625550813199594e-16 -2.7532954169069346e-01  7.4974193240733983e-02 -3.6726762308367994e-16 -9.1808265702184935e-02  7.4974193240733983e-02 -3.6726762308367994e-16 9.1808265702186156e-02  7.4767579596622766e-02 -3.6625550813199609e-16 2.7532954169069479e-01  7.4353499037071599e-02 -3.6422709840462218e-16 4.5856306321500012e-01  7.3730233046077578e-02 -3.6117397560106915e-16 6.4131060297846398e-01  7.2895172879503631e-02 -3.5708336056070844e-16 8.2336423079667298e-01  7.1844783008519028e-02 -3.5193793418727574e-16 1.0045016579485726e+00  7.0574551486284332e-02 -3.4571559431575283e-16 1.1844811605458381e+00  6.9078928420284000e-02 -3.3838915431371982e-16 1.3630355137944241e+00  6.7351253178371095e-02 -3.2992598649382069e-16 1.5398647281115303e+00  6.5383672625308628e-02 -3.2028762158833067e-16 1.7146271683799137e+00  6.3167055711007142e-02 -3.0942933035218972e-16 1.8869284926370384e+00  6.0690912341592761e-02 -2.9729972614585657e-16 2.0563078541471143e+00  5.7943334528436655e-02 -2.8384047664869711e-16 2.2222204031359492e+00  5.4910988807093011e-02 -2.6898626672249040e-16 2.3840151202273860e+00  5.1579208134132234e-02 -2.5266524857608057e-16 2.5409069170456760e+00  4.7932270056156086e-02 -2.3480040440055221e-16 2.6919416939031815e+00  4.3953997191578408e-02 -2.1531248788159301e-16 2.8359537718631072e+00  3.9628892522077089e-02 -1.9412558552366477e-16 2.9715165824594565e+00  3.4944119197109956e-02 -1.7117681489505723e-16 3.0968910442095541e+00  2.9892740354997397e-02 -1.4643219517396187e-16 3.2099828980462863e+00  2.4478532427688496e-02 -1.1991022554157361e-16 3.3083347342340845e+00  1.8722468271268396e-02 -9.1713643362186895e-17 3.3891919057152911e+00  1.2669761397409983e-02 -6.2063930965195328e-17 3.4496980876625027e+00  6.3948236120806553e-03 -3.1325601070585955e-17 3.4872542864777878e+00  0.0000000000000000e+00 0.0000000000000000e+00 0.0000000000000000e+00  0.0000000000000000e+00 0.0000000000000000e+00 0.0000000000000000e+00  0.0000000000000000e+00 0.0000000000000000e+00 0.0000000000000000e+00  0.0000000000000000e+00 0.0000000000000000e+00 0.0000000000000000e+00  0.0000000000000000e+00 0.0000000000000000e+00 0.0000000000000000e+00  0.0000000000000000e+00 0.0000000000000000e+00 0.0000000000000000e+00  0.0000000000000000e+00 0.0000000000000000e+00 0.0000000000000000e+00  0.0000000000000000e+00 0.0000000000000000e+00 0.0000000000000000e+00  0.0000000000000000e+00 0.0000000000000000e+00 0.0000000000000000e+00  0.0000000000000000e+00 0.0000000000000000e+00 0.0000000000000000e+00  0.0000000000000000e+00 0.0000000000000000e+00 0.0000000000000000e+00  0.0000000000000000e+00 0.0000000000000000e+00 0.0000000000000000e+00  0.0000000000000000e+00 0.0000000000000000e+00 0.0000000000000000e+00  0.0000000000000000e+00 0.0000000000000000e+00 0.0000000000000000e+00  0.0000000000000000e+00 0.0000000000000000e+00 0.0000000000000000e+00  0.0000000000000000e+00 0.0000000000000000e+00 0.0000000000000000e+00  0.0000000000000000e+00 0.0000000000000000e+00 0.0000000000000000e+00  0.0000000000000000e+00 0.0000000000000000e+00 0.0000000000000000e+00  0.0000000000000000e+00 0.0000000000000000e+00 0.0000000000000000e+00  0.0000000000000000e+00 0.0000000000000000e+00 0.0000000000000000e+00  0.0000000000000000e+00 0.0000000000000000e+00 0.0000000000000000e+00  0.0000000000000000e+00 0.0000000000000000e+00 0.0000000000000000e+00  0.0000000000000000e+00 0.0000000000000000e+00 0.0000000000000000e+00  0.0000000000000000e+00 0.0000000000000000e+00 0.0000000000000000e+00  0.0000000000000000e+00 0.0000000000000000e+00 0.0000000000000000e+00  0.0000000000000000e+00 0.0000000000000000e+00 0.0000000000000000e+00  0.0000000000000000e+00 0.0000000000000000e+00 0.0000000000000000e+00  0.0000000000000000e+00 0.0000000000000000e+00 0.0000000000000000e+00  0.0000000000000000e+00 0.0000000000000000e+00 0.0000000000000000e+00  0.0000000000000000e+00 0.0000000000000000e+00 0.0000000000000000e+00  0.0000000000000000e+00 0.0000000000000000e+00 0.0000000000000000e+00  0.0000000000000000e+00 0.0000000000000000e+00 0.0000000000000000e+00  0.0000000000000000e+00 0.0000000000000000e+00 0.0000000000000000e+00  0.0000000000000000e+00 0.0000000000000000e+00 0.0000000000000000e+00  0.0000000000000000e+00 0.0000000000000000e+00 0.0000000000000000e+00  0.0000000000000000e+00 0.0000000000000000e+00 0.0000000000000000e+00  0.0000000000000000e+00 0.0000000000000000e+00 0.0000000000000000e+00  0.0000000000000000e+00 0.0000000000000000e+00 0.0000000000000000e+00  0.0000000000000000e+00 0.0000000000000000e+00 0.0000000000000000e+00  0.0000000000000000e+00 0.0000000000000000e+00 0.0000000000000000e+00  0.0000000000000000e+00 0.0000000000000000e+00 0.0000000000000000e+00  0.0000000000000000e+00 0.0000000000000000e+00 0.0000000000000000e+00  0.0000000000000000e+00 0.0000000000000000e+00 0.0000000000000000e+00  0.0000000000000000e+00 0.0000000000000000e+00 0.0000000000000000e+00  0.0000000000000000e+00 0.0000000000000000e+00 0.0000000000000000e+00  0.0000000000000000e+00 0.0000000000000000e+00 0.0000000000000000e+00  0.0000000000000000e+00 0.0000000000000000e+00 0.0000000000000000e+00  0.0000000000000000e+00 0.0000000000000000e+00 0.0000000000000000e+00  0.0000000000000000e+00 0.0000000000000000e+00 0.0000000000000000e+00  0.0000000000000000e+00 0.0000000000000000e+00 0.0000000000000000e+00  0.0000000000000000e+00 0.0000000000000000e+00 0.0000000000000000e+00  0.0000000000000000e+00 0.0000000000000000e+00 0.0000000000000000e+00  0.0000000000000000e+00 0.0000000000000000e+00 0.0000000000000000e+00  0.0000000000000000e+00 0.0000000000000000e+00 0.0000000000000000e+00  0.0000000000000000e+00 0.0000000000000000e+00 0.0000000000000000e+00  0.0000000000000000e+00 0.0000000000000000e+00 0.0000000000000000e+00  0.0000000000000000e+00 0.0000000000000000e+00 0.0000000000000000e+00  0.0000000000000000e+00 0.0000000000000000e+00 0.0000000000000000e+00  0.0000000000000000e+00 0.0000000000000000e+00 0.0000000000000000e+00  0.0000000000000000e+00 0.0000000000000000e+00 0.0000000000000000e+00  0.0000000000000000e+00 0.0000000000000000e+00 0.0000000000000000e+00  0.0000000000000000e+00 0.0000000000000000e+00 0.0000000000000000e+00  0.0000000000000000e+00 0.0000000000000000e+00 0.0000000000000000e+00  0.0000000000000000e+00 0.0000000000000000e+00 0.0000000000000000e+00  0.0000000000000000e+00 0.0000000000000000e+00 0.0000000000000000e+00  0.0000000000000000e+00 0.0000000000000000e+00 0.0000000000000000e+00  0.0000000000000000e+00 0.0000000000000000e+00 0.0000000000000000e+00  0.0000000000000000e+00 0.0000000000000000e+00 0.0000000000000000e+00  0.0000000000000000e+00 0.0000000000000000e+00 0.0000000000000000e+00  0.0000000000000000e+00 0.0000000000000000e+00 0.0000000000000000e+00  0.0000000000000000e+00 0.0000000000000000e+00 0.0000000000000000e+00  0.0000000000000000e+00 0.0000000000000000e+00 0.0000000000000000e+00  0.0000000000000000e+00 0.0000000000000000e+00 0.0000000000000000e+00  0.0000000000000000e+00 0.0000000000000000e+00 0.0000000000000000e+00  0.0000000000000000e+00 0.0000000000000000e+00 0.0000000000000000e+00  0.0000000000000000e+00 0.0000000000000000e+00 0.0000000000000000e+00  0.0000000000000000e+00 0.0000000000000000e+00 0.0000000000000000e+00  0.0000000000000000e+00 0.0000000000000000e+00 0.0000000000000000e+00  0.0000000000000000e+00 0.0000000000000000e+00 0.0000000000000000e+00  0.0000000000000000e+00 0.0000000000000000e+00 0.0000000000000000e+00  0.0000000000000000e+00 0.0000000000000000e+00 0.0000000000000000e+00  0.0000000000000000e+00 0.0000000000000000e+00 0.0000000000000000e+00  0.0000000000000000e+00 0.0000000000000000e+00 0.0000000000000000e+00  0.0000000000000000e+00 0.0000000000000000e+00 0.0000000000000000e+00  0.0000000000000000e+00 0.0000000000000000e+00 0.0000000000000000e+00  0.0000000000000000e+00 0.0000000000000000e+00 0.0000000000000000e+00  0.0000000000000000e+00 0.0000000000000000e+00 0.0000000000000000e+00  0.0000000000000000e+00 0.0000000000000000e+00 0.0000000000000000e+00  0.0000000000000000e+00 0.0000000000000000e+00 0.0000000000000000e+00  0.0000000000000000e+00 0.0000000000000000e+00 0.0000000000000000e+00  0.0000000000000000e+00 0.0000000000000000e+00 0.0000000000000000e+00  0.0000000000000000e+00 0.0000000000000000e+00 0.0000000000000000e+00  0.0000000000000000e+00 0.0000000000000000e+00 0.0000000000000000e+00  0.0000000000000000e+00 0.0000000000000000e+00 0.0000000000000000e+00  0.0000000000000000e+00 0.0000000000000000e+00 0.0000000000000000e+00  0.0000000000000000e+00 0.0000000000000000e+00 0.0000000000000000e+00  0.0000000000000000e+00 0.0000000000000000e+00 0.0000000000000000e+00  0.0000000000000000e+00 0.0000000000000000e+00 0.0000000000000000e+00  0.0000000000000000e+00 0.0000000000000000e+00 0.0000000000000000e+00  0.0000000000000000e+00 0.0000000000000000e+00 0.0000000000000000e+00  0.0000000000000000e+00 0.0000000000000000e+00 0.0000000000000000e+00  0.0000000000000000e+00 0.0000000000000000e+00 0.0000000000000000e+00  0.0000000000000000e+00 0.0000000000000000e+00 0.0000000000000000e+00  0.0000000000000000e+00 0.0000000000000000e+00 0.0000000000000000e+00  0.0000000000000000e+00 0.0000000000000000e+00 0.0000000000000000e+00  0.0000000000000000e+00 0.0000000000000000e+00 0.0000000000000000e+00  0.0000000000000000e+00 0.0000000000000000e+00 0.0000000000000000e+00  0.0000000000000000e+00 0.0000000000000000e+00 0.0000000000000000e+00  0.0000000000000000e+00 0.0000000000000000e+00 0.0000000000000000e+00  0.0000000000000000e+00 0.0000000000000000e+00 0.0000000000000000e+00  0.0000000000000000e+00 0.0000000000000000e+00 0.0000000000000000e+00  0.0000000000000000e+00 0.0000000000000000e+00 0.0000000000000000e+00  0.0000000000000000e+00 0.0000000000000000e+00 0.0000000000000000e+00  0.0000000000000000e+00 0.0000000000000000e+00 0.0000000000000000e+00  0.0000000000000000e+00 0.0000000000000000e+00 0.0000000000000000e+00  0.0000000000000000e+00 0.0000000000000000e+00 0.0000000000000000e+00  0.0000000000000000e+00 0.0000000000000000e+00 0.0000000000000000e+00  0.00000