<?xml version="1.0"?>
<VTKFile type="UnstructuredGrid"  version="0.1"  >
<UnstructuredGrid>
<Piece  NumberOfPoints="6501" NumberOfCells="30207">
<Points>
<DataArray  type="Float64"  NumberOfComponents="3"  format="ascii">-75 -75 75  -75 -75 -75  -75 75 75  -75 75 -75  75 -75 -75  75 -75 75  75 75 75  75 75 -75  7.041719095097281e-16 -1.139817434823012e-31 18.75  7.041719095097281e-16 -1.139817434823012e-31 -18.75  -75 -75 -60  -75 -75 -45  -75 -75 -30  -75 -75 -15  -75 -75 0  -75 -75 15  -75 -75 30  -75 -75 45  -75 -75 60  -75 -60 75  -75 -45 75  -75 -30 75  -75 -15 75  -75 0 75  -75 15 75  -75 30 75  -75 45 75  -75 60 75  -75 75 -60  -75 75 -45  -75 75 -30  -75 75 -15  -75 75 0  -75 75 15  -75 75 30  -75 75 45  -75 75 60  -75 -60 -75  -75 -45 -75  -75 -30 -75  -75 -15 -75  -75 0 -75  -75 15 -75  -75 30 -75  -75 45 -75  -75 60 -75  -60 -75 -75  -45 -75 -75  -30 -75 -75  -15 -75 -75  0 -75 -75  15 -75 -75  30 -75 -75  45 -75 -75  60 -75 -75  75 -75 -60  75 -75 -45  75 -75 -30  75 -75 -15  75 -75 0  75 -75 15  75 -75 30  75 -75 45  75 -75 60  -60 -75 75  -45 -75 75  -30 -75 75  -15 -75 75  0 -75 75  15 -75 75  30 -75 75  45 -75 75  60 -75 75  -60 75 75  -45 75 75  -30 75 75  -15 75 75  0 75 75  15 75 75  30 75 75  45 75 75  60 75 75  75 -60 75  75 -45 75  75 -30 75  75 -15 75  75 0 75  75 15 75  75 30 75  75 45 75  75 60 75  -60 75 -75  -45 75 -75  -30 75 -75  -15 75 -75  0 75 -75  15 75 -75  30 75 -75  45 75 -75  60 75 -75  75 75 -60  75 75 -45  75 75 -30  75 75 -15  75 75 0  75 75 15  75 75 30  75 75 45  75 75 60  75 -60 -75  75 -45 -75  75 -30 -75  75 -15 -75  75 0 -75  75 15 -75  75 30 -75  75 45 -75  75 60 -75  0.9805396205190569 -1.587163787576392e-16 -18.68171939184529  1.942696747602859 -3.144572502236555e-16 -18.48052546962055  2.870778468261158 -4.646824597017474e-16 -18.15638520918906  3.753374972245576 -6.075451427439739e-16 -17.72322179053974  4.583553521099566 -7.419231222147345e-16 -17.19633695381942  5.358098276890152 -8.672958621349493e-16 -16.59048773683694  6.076430186718484 -9.835696333199008e-16 -15.91883883460424  6.739612902708683 -1.090916605266737e-15 -15.1926094921238  7.349614741943911 -1.189655382296128e-15 -14.4211162173385  7.908811913900277 -1.280170592785475e-15 -13.61200134131612  8.419684950420903 -1.362863751393947e-15 -12.77150957264676  8.884644627693605 -1.438125081686729e-15 -11.90475215965691  9.305939892377546 -1.506318612472339e-15 -11.015934932931  9.685615209021067 -1.567775273784423e-15 -10.10854549626992  10.02549646921399 -1.622790616047541e-15 -9.18550268774956  10.3271921540169 -1.671624998235358e-15 -8.249275329168904  10.59210235777688 -1.714505048522847e-15 -7.301975966755837  10.82143122789693 -1.751625677866481e-15 -6.345434788638409  11.01620006130624 -1.783152199882197e-15 -5.381258881867347  11.1772598415239 -1.809222360174256e-15 -4.410879807839314  11.30530240039856 -1.829948143045416e-15 -3.43559251595605  11.40086985235098 -1.84541729858342e-15 -2.456587838651782  11.46436220481549 -1.855694574535446e-15 -1.474979687628715  11.49604296357921 -1.860822623623978e-15 -0.4918299948331336  11.49604296357921 -1.860822623623978e-15 0.4918299948331401  11.46436220481549 -1.855694574535447e-15 1.474979687628722  11.40086985235098 -1.845417298583419e-15 2.456587838651786  11.30530240039856 -1.829948143045417e-15 3.435592515956057  11.17725984152389 -1.809222360174256e-15 4.410879807839319  11.01620006130625 -1.783152199882197e-15 5.381258881867353  10.82143122789693 -1.751625677866481e-15 6.345434788638418  10.59210235777688 -1.714505048522847e-15 7.301975966755843  10.3271921540169 -1.671624998235358e-15 8.249275329168912  10.02549646921399 -1.622790616047542e-15 9.185502687749537  9.685615209021094 -1.567775273784428e-15 10.10854549626985  9.305939892377557 -1.50631861247234e-15 11.01593493293097  8.88464462769362 -1.438125081686732e-15 11.90475215965687  8.419684950420928 -1.362863751393951e-15 12.77150957264671  7.908811913900275 -1.280170592785475e-15 13.61200134131612  7.349614741943932 -1.189655382296131e-15 14.42111621733847  6.739612902708688 -1.090916605266738e-15 15.19260949212379  6.076430186718487 -9.835696333199014e-16 15.91883883460423  5.358098276890194 -8.672958621349565e-16 16.5904877368369  4.5835535210996 -7.419231222147402e-16 17.19633695381939  3.75337497224557 -6.075451427439731e-16 17.72322179053974  2.870778468261154 -4.646824597017469e-16 18.15638520918906  1.942696747602864 -3.144572502236563e-16 18.48052546962055  0.9805396205190339 -1.587163787576355e-16 18.68171939184529  -75 -60.74998678227594 -5.413455946347426  -75 61.50907427704607 6.421476138283367  -75 -7.500000000000028 62.00961894323339  -75 7.5 -62.00961894323342  -75 -61.71300729890635 22.69138357274757  -75 22.5 62.00961894323342  -75 62.00961894323342 -22.5  -75 -22.5 -62.00961894323342  -75 -61.69123533526345 -37.19377007443569  -75 -37.81297757236224 62.15819488684329  -75 61.55555812566854 38.80088482059872  -75 36.89682048485673 -63.06116146554901  -75 -61.8617769373551 50.59895212827973  -75 52.43643946078686 62.29841932416252  -75 62.55753893776773 -52.41101524510159  -75 -51.68339181158553 -60.67570757846403  -75 7.499999999999986 62.00961894323339  -75 -4.263256414560601e-14 49.01923788646684  -75 -14.89032811082181 49.08255698120644  -75 -7.372049462625455 36.10272910689648  -75 7.521325089562325 36.04116887589964  -75 0.02487927115602417 23.05283982683295  -75 -14.87357000914056 23.38396559881194  -75 -7.47478178966422 10.1080703627967  -75 7.508349580248506 10.06048466625522  -75 0.005594631763898406 -2.930225407813197  -75 15.00166002523943 -2.939375521209698  -75 -15.0000000000002 -2.942286340599438  -75 -7.499067561372897 -15.93065724190166  -75 -22.49984459356236 -15.93233237145526  -75 22.49999999999983 10.04809471616706  -75 30.00027667087308 -2.941801204034562  -75 22.50032278268527 -15.93210140470696  -75 -29.99997409892722 -2.942230502947609  -75 -14.99981869248943 -28.92265759057008  -75 -29.9999713678618 -28.9229867288372  -75 0.0001856243560780513 -28.92264828429482  -75 -7.500000000000313 -41.91342951089919  -75 37.08924740778036 10.28535031461668  -75 29.93154123462985 23.07801837267527  -75 37.23086202245943 -15.77704764293443  -75 29.95519746752396 -28.89701749628422  -75 44.40917396271716 22.98083521826123  -75 36.95502393536609 35.77463813597433  -75 7.499999999999673 -41.91342951089925  -75 47.18540537260324 -29.51249923573116  -75 37.34603163781514 -41.77770414839027  -75 46.96555139691444 -1.862982746252769  -75 15.00355418159366 49.02128989416674  -75 22.49999999999977 -41.91342951089926  -75 7.501449250445248 -15.92967605234318  -75 14.99285918750167 -28.91805037657127  -75 -22.50000000000035 -41.91342951089915  -75 -37.21636144111822 -41.74196933477168  -75 -47.14360734872791 -29.46664815900601  -75 -37.50000000000028 -15.93266739736594  -75 -45.0000000000002 -2.942286340599296  -75 -37.50870921622847 10.31556869839858  -75 -52.47945466058451 9.441084889992254  -75 -45.7485354069844 23.28307627838103  -75 -53.71886464532696 36.23511359644581  -75 -38.46001423469239 36.66056870324702  -75 -30.15546625532943 23.35000756552392  -75 -46.70857307950239 49.36738862378702  -75 61.92760747168484 -7.850179358091623  -75 -62.00961894323342 -22.5  -75 37.48940657679779 62.05775234005495  -75 47.25145112991386 47.74814336348328  -75 62.07675513402967 -37.40391908013879  -75 59.6283489365845 22.74228313853121  -75 -36.8850172563118 -62.76806249597166  -75 -7.5 -62.00961894323342  -75 22.5 -62.00961894323342  -75 -22.50208356154835 10.21218256366402  -75 -22.5338842805307 62.04493478295831  -75 -30.0975177852475 49.08895658255608  -75 14.99999999999983 23.03847577293367  -75 30.28323930394518 48.77338325110215  -75 22.44911395751615 35.95449571712528  -75 -22.24988821155249 36.34211800948268  -75 -63.01622611762248 -51.97730985283301  -75 62.51250118488849 52.63110876075615  -75 51.61400847913646 -60.92184840345482  -75 -52.06399726458147 62.66077037286985  -75 50.70796755057384 -45  -75 -50.70349167241905 -44.97514357763148  -75 50.88457268119886 -15.00000000000015  -75 -50.88457268119912 -15  -75 49.92027919620851 12.11339241268794  -75 -64.89027798624846 7.719648714930884  -75 -30.00000000000038 -51.96152422706613  -75 14.99999999999984 -51.96152422706633  -75 -15.00000000000023 -51.96152422706625  -75 30 -51.96152422706643  -75 -1.84741111297626e-13 -51.96152422706631  -75 49.95991121805002 33.60935693536976  -75 -65.71949345690466 37.50000000000001  -75 -64.01923788646684 -64.01923788646684  -75 -64.01923788646684 64.01923788646684  -75 64.01923788646681 64.01923788646681  -75 64.01923788646681 -64.01923788646681  -75 -41.53452651914353 -52.2922079525768  -75 41.31296563047643 -52.5444476488921  62.00961894323339 -75 -7.500000000000028  -5.413455946347383 -75 -60.74998678227598  -5.413455946347597 -75 60.74998678227573  -62.00961894323342 -75 7.5  -62.00961894323342 -75 -22.5  22.69138357274761 -75 -61.7130072989064  62.00961894323339 -75 22.5  22.73077533125711 -75 61.40108873361871  -62.99038105676656 -75 37.02111862104732  -37.19377007443565 -75 -61.6912353352635  62.15819488684332 -75 -37.81297757236231  -37.19377007443576 -75 61.69123533526323  62.3445554337722 -75 51.91987298107784  -60.67570757846403 -75 -51.68339181158555  50.59895212827978 -75 -61.8617769373552  62.00961894323339 -75 7.499999999999986  49.01923788646684 -75 -4.263256414560601e-14  49.01923788646687 -75 -15.00000000000005  36.02885682970029 -75 -7.500000000000085  36.02885682970023 -75 7.499999999999915  23.03847577293369 -75 -1.4210854715202e-13  23.03847577293364 -75 14.99999999999986  10.04809471616707 -75 7.499999999999787  10.04809471616717 -75 -7.500000000000213  -2.942286340599452 -75 -2.842170943040401e-13  -2.942286340599537 -75 14.99999999999972  -2.942286340599367 -75 -15.00000000000028  -15.93266739736599 -75 -7.500000000000369  -15.93266739736589 -75 -22.50000000000038  36.16638771814134 -75 -22.72031971396727  -2.942286340599253 -75 -30.00000000000028  -28
[...]
<PointData  Tensors="f_53"> 
<DataArray  type="Float64"  Name="f_53"  NumberOfComponents="9" format="ascii">2.2511204494596584e-04 2.5116303162415343e-04 -1.9339949724265235e-04 5.2036921784027263e-05 9.9274393441833297e-05 -3.3452304791689613e-05 -8.9278198046566852e-05 -9.1676171162862524e-05 6.4777592375656455e-05  2.5088986449426851e-04 2.6252104554897414e-04 2.4037095683635860e-04 1.1237597694998687e-04 1.0865594671979643e-04 1.0611186835659876e-04 4.1543271668787928e-05 4.0087983795029427e-05 4.2620691034824796e-05  1.7213504012143543e-04 -1.5877815737365172e-04 -2.0187767761959779e-04 -1.6198626369127081e-04 1.6171228662119601e-04 1.6872506708901175e-04 -4.6183340343213832e-05 5.3757923964378261e-05 8.2294874538504624e-05  1.6881377455550830e-04 -1.9575210120667869e-04 1.9249846949106867e-04 -1.3998922499007397e-04 1.7165642536704257e-04 -1.8083172532644127e-04 3.4908833708611782e-05 -8.0737614438470341e-05 4.1271648674528688e-05  1.8328782100030005e-04 -2.2415451888750827e-04 -2.8899412868952371e-04 -1.5731169043711250e-04 1.7743414788623372e-04 1.7589357708405035e-04 -2.1247589519623588e-04 2.3002393366541502e-04 1.9429712817239163e-04  2.2712042033169554e-04 -1.5318703603550208e-04 1.7537618598052973e-04 -2.1959127196140627e-04 1.5196986544424658e-04 -1.3051925340526379e-04 1.4951591841758647e-04 -1.0220370578734693e-04 1.2591921152312543e-04  2.3796462013393326e-04 1.9462511306399122e-04 1.8250788096450099e-04 2.1971952685060557e-04 1.7714685006468999e-04 1.7997575090121336e-04 9.0546554530382073e-05 8.8944850701035895e-05 6.8411320898760329e-05  8.6181656911316732e-05 1.5477380533505960e-04 -1.1255015983066223e-04 1.3960914484493142e-04 2.4512026162164008e-04 -2.1003989029237430e-04 -5.3288150720976961e-05 -4.7820568186262152e-05 8.8049337470657400e-05  -9.1806499019428348e-02 -6.8235150658480709e-02 -3.3742252330891516e-02 -3.6849590565623436e-03 2.5698808243405463e-01 -2.2091962265035538e-02 -3.8805862421897215e-02 -5.3483902179775868e-02 -2.2783659352856592e-01  5.5913653019028731e-02 -1.0623459802016602e-03 -5.0778932836196757e-02 1.3859531597949219e-02 1.9878250818217499e-01 2.6088347572826073e-02 2.9845631954960981e-04 4.9412482111502558e-03 -2.2481290396894704e-01  4.4391423184418280e-04 4.6949844456557727e-04 -5.4534601311473626e-05 2.1522643483065445e-04 2.6253298877237648e-04 -4.9340501254880321e-05 2.7338559060376658e-05 8.2239663585075679e-05 -3.6951247655264351e-05  4.0392697842090103e-04 4.8643222629572724e-04 -2.7204562713036499e-05 3.3675300231315430e-04 3.6326104647861759e-04 1.0294544184804707e-04 -1.6379560820782029e-04 -8.4022016303364288e-05 9.8786551799729182e-06  4.2092892012017715e-04 4.1877648488571751e-04 4.5349952894345304e-06 1.2974076002674118e-04 2.3779600956088935e-04 7.5169336105779410e-05 -1.2929194414488390e-04 -1.2204821917333471e-04 1.0807251882884780e-04  4.4213288980138890e-04 3.7824249271847652e-04 4.0307352820171872e-06 -4.1779668815423380e-05 1.1059878281833422e-04 -1.8365098201349899e-04 1.9403753827370368e-05 4.3135223936272852e-05 -2.0429893470167890e-05  3.2188304310392675e-04 4.0393249943281435e-04 1.2156177540131669e-04 7.4265676824280440e-05 1.2359059470351880e-04 -1.1226833995971600e-05 5.9697500800778866e-05 1.5306185003471876e-04 -4.9833646165867919e-05  4.6694929826959601e-04 6.3599800886768223e-04 7.6034242078516559e-05 1.2503336081004518e-04 1.5703986117644123e-04 1.6742316361925744e-05 9.7817247960879276e-05 1.5863425616753071e-04 1.8873127914915727e-05  6.5062328129876403e-04 7.2369436750137524e-04 5.6026867471152509e-05 2.3325548957451214e-04 2.5348173606593255e-04 1.3533066060829330e-05 8.9350693288486587e-05 1.3579967539217742e-05 2.7639356440990673e-05  -1.3113994984417692e-04 -1.4906233068479640e-04 1.9058195367375260e-04 -1.6752388404777611e-04 -2.0544633294240983e-04 9.3478735855742932e-05 1.1915847531306426e-06 5.2418263247564926e-05 -2.2927873175392733e-04  5.7668779347647007e-04 6.0544692660667511e-04 -7.2167568393370079e-05 2.1917557105980380e-04 2.8363301244324439e-04 -1.0625358229462442e-04 -1.4001284652977237e-04 -1.7158770407095340e-04 2.4648016868465875e-06  4.1827308990443393e-04 8.4910447896033545e-07 -5.4590499738132016e-04 6.4305027393165713e-05 -8.9020449447681276e-06 -1.4243505093938176e-04 -1.2415570352448024e-04 3.0571989194416926e-05 1.8218368045452848e-04  3.8307586820522866e-04 -1.2609604255565439e-04 -4.4628176695337888e-04 -9.8410400823337901e-05 -7.6893235195967611e-05 4.5307691893194036e-05 -2.3915234359046187e-04 -1.6910816791298848e-04 2.6194489146779939e-04  5.5966982106722522e-04 2.1930966611330069e-04 -7.0538618201117524e-04 2.6744986962592074e-05 1.5745421043416194e-04 -1.4137666159525920e-04 1.3582032931572664e-04 -9.1369707371973075e-05 6.9769184164848101e-05  -4.2299105696138624e-04 5.2746411079576260e-04 3.8752501899020410e-04 -1.4166289740828036e-04 1.2090633442054053e-05 1.3255595265114438e-04 9.1682491835420739e-06 -2.3203815199163028e-04 -1.0474918666488264e-04  9.5958754471096180e-04 -2.1274489157555067e-04 -1.2782621237410192e-03 4.8088939509001559e-05 6.1091198412847447e-05 1.0209025491456217e-05 1.9788216099800391e-04 2.7733225455421157e-04 8.7631157364947721e-05  8.1090926576376414e-04 -8.1422272276222369e-05 -8.7881306670469178e-04 -2.0048925776974247e-04 -1.3298317035121729e-05 2.3362920171049128e-04 1.8401710994370504e-04 -3.0396139181004400e-05 1.4599287305190103e-05  4.4405870247678339e-04 6.2329778400396119e-06 -4.5724625588503508e-04 1.8094211471802353e-05 8.7158556378100419e-05 1.1582868692268097e-04 8.9351677795284544e-05 -6.9621733676300949e-05 4.0204262582273020e-05  4.9760278110913276e-04 -3.5229475839287692e-06 -4.1811123528582292e-04 -1.1065576494734230e-04 -8.0421815680999586e-05 1.5014993336343808e-04 -1.5857795823265414e-04 1.5990927609287398e-04 2.2549684041077295e-04  3.7943258315034628e-04 -1.5383090186652801e-05 -4.3339585854087744e-04 -2.4583370673640523e-04 -4.6603220217352357e-05 2.9639306190055770e-04 -7.1292889106891539e-05 -1.9022949984777646e-05 1.7235068554473655e-04  3.2436197402089021e-04 -3.5411675740202502e-04 -2.6334981242723677e-05 -3.2466713212548796e-04 3.6784617504438216e-04 -3.2486372816659262e-07 1.3380945063077410e-04 -1.4518914739572824e-04 6.0530994022112067e-06  3.6084174060218958e-04 -4.2327800148266070e-04 -8.4685674539845834e-05 -3.6264421473599880e-04 4.7507978263458447e-04 1.1280676181001969e-04 6.4020210699445725e-05 -1.2132922846852013e-04 -1.8069525525331476e-05  4.0713279325187271e-04 -4.9362186209940756e-04 6.4658976254492872e-05 -2.5003545281466035e-04 2.6489117011181164e-04 -5.6556779567575144e-05 -6.2454697641157051e-05 3.2669159645614174e-05 2.7833555774587193e-05  -1.4894473112656698e-04 1.6359066107459765e-04 3.7365981480325661e-05 2.4551936209104001e-05 -3.8392196096746481e-05 1.4188499766259162e-05 -3.6847343666980149e-05 5.0124527715512527e-05 1.2547638385647229e-04  5.1020216529656058e-04 -6.5484084688024048e-04 -8.7396884517486613e-05 -6.5898249820555720e-05 1.5490883567646966e-04 3.2925612669263020e-05 -7.1082824050368261e-05 7.6179145041046682e-05 -7.1930412803405307e-05  5.8430945375785863e-04 -6.0820558569907649e-04 8.5514083020158058e-05 -9.1482356530047336e-05 1.6350134724009836e-04 -5.8626547909236262e-05 9.1105969624599148e-05 -2.2697134496157887e-05 1.7549811905624052e-05  -2.0067440992111371e-04 2.3945108853143325e-04 -1.1965725322311023e-04 5.7388643264050899e-05 -1.2699740401092474e-04 7.7581023914722458e-05 2.3385571136860930e-05 -8.5264960399047753e-05 -4.8111848369626686e-05  5.6355719061871841e-04 -5.8979895266483558e-04 -1.3053523188566763e-04 -2.0907244060871689e-04 2.7933309064826471e-04 3.2949273098773243e-05 8.2266619162990018e-05 -2.4654329053258865e-05 8.3898087524725750e-06  3.3024101267334539e-04 -3.7212399920967017e-04 4.8433471989778623e-05 -2.3401149632303335e-04 2.7063314875845780e-04 -3.2810877265530841e-05 -6.9915760114274797e-05 8.3153897427806515e-05 -5.3047147190924205e-05  4.4650893421862800e-04 -2.6798756166466946e-05 5.3889640259215652e-04 2.5444703815080140e-04 -4.4156584225114064e-06 3.0815384736010074e-04 3.0123758372824191e-05 -1.5761664058117004e-05 1.1121072651938044e-04  4.7369283798773444e-04 -3.5651244099003850e-04 4.7932486662072938e-04 4.4983608019946155e-04 7.0606512469402019e-06 4.8590931100729487e-04 3.1329823255040383e-05 -4.5240548277241730e-05 1.0247816161601527e-04  7.2027586689845594e-04 1.1604929508859489e-04 8.8666347144018224e-04 4.0209746721325438e-04 -2.8811470980106863e-05 4.9811515588733455e-04 3.6226932945350973e-05 -7.4218324700485208e-05 1.1176334033323629e-04  -1.6707601571492250e-04 2.3309123128622143e-04 -4.5960440021564737e-04 -2.8971701507657500e-05 -2.4723889239615593e-04 -8.6358300431779391e-05 2.5153828606199288e-04 1.2277923396176383e-04 1.4172011629331682e-04  -3.2380363229183521e-04 -3.9581736464739775e-04 -3.7412738936376218e-04 2.9315132133042399e-05 1.0381702577407967e-05 -1.1736632042787098e-05 -2.6886022308051407e-04 -6.3510594990414570e-05 -1.2424733300744358e-04  7.5290730127813810e-04 2.8701224091959011e-06 1.1244723797053868e-03 -3.6067670322649308e-04 1.1812882824792368e-05 -2.9088003807149483e-04 1.4608277704573829e-04 -1.3035766440859323e-05 2.2598423579949572e-04  6.8103722806483699e-04 1.2281648622598126e-04 8.5220365424366277e-04 -3.9176843718403850e-04 8.0085192710409293e-05 -4.3057879906132268e-04 4.5294329138931601e-05 7.2024232334523175e-05 1.6195705718983331e-04  5.9403976432370663e-04 -4.5419757783341617e-05 5.4815118664635406e-04 -4.0301676482818643e-04 3.4448362753539791e-05 -4.2608657379071362e-04 9.4885259067589061e-05 -8.2185573128839811e-05 1.7774954303154735e-04  4.1272982278371960e-04 1.0366380483834171e-04 4.6396022245628633e-04 -3.9012174549870113e-04 -4.7247802204929509e-05 -3.8589594944530187e-04 1.2764991700072654e-04 5.4213753173600924e-05 1.1660963192537292e-04  -2.7013527578300136e-05 4.6076886368358463e-04 5.2274910368798331e-04 -4.1978052674714475e-05 2.5142617102971265e-04 2.9750065547004464e-04 2.1361069744010935e-05 1.1151291277421858e-04 1.4073132940419015e-04  -1.1003193541357634e-04 5.4199939651820568e-04 7.6065636687754968e-04 4.7005715384054920e-05 4.5037500292934089e-04 5.6090596963406520e-04 -4.8812452704221467e-05 1.4977791348329167e-04 2.4364452060326712e-04  5.5539618062872201e-05 6.5023664465119798e-04 8.0267782086175033e-04 -4.6820341443991505e-05 5.9105213960440833e-04 5.8681423928174097e-04 -6.1702402776549485e-05 -1.7683473571471148e-05 3.9990663220497735e-05  -1.3887138564581974e-04 6.6275536504550566e-04 5.8073848773449333e-04 -1.6387921092175651e-04 7.9112635958101130e-04 7.7557224530982864e-04 4.2590775157647459e-05 3.3091607120484827e-06 7.2548417837967145e-05  -1.0680239633298500e-04 1.1322812220619096e-05 -6.8642836700737528e-05 4.0798500396371892e-05 5.9166653458425894e-04 1.0249635238257031e-03 3.7546203332057032e-05 -6.4679835562633198e-05 2.7287549746203218e-04  5.7499234206340892e-05 -3.9916098024140987e-04 -2.6932566879363186e-04 -1.7511550203078650e-05 6.5219873977533972e-04 9.6278594845697948e-04 -9.2516458237132792e-06 4.6482069804951336e-05 2.0812312384884324e-04  -1.1376224659463612e-04 -5.3359801137610355e-04 -5.2885501697419901e-04 1.1236259638765146e-04 5.2689080857984947e-04 5.7905098554680715e-04 7.2982795194138086e-06 5.4168056635318411e-05 9.3894295644429584e-05  3.0537367725501920e-05 -4.6851643442048693e-04 -6.1372578596520738e-04 9.0295053515389930e-05 2.1477920242859525e-04 3.2761884644249634e-04 9.0891035867735398e-05 1.0536132512564468e-04 1.6458754122979013e-04  -3.2554810917293039e-05 -4.7397531664500239e-04 -4.4100540136811638e-04 1.9223726622017328e-05 3.3722804829991666e-04 3.2507446048406468e-04 6.4234902100607181e-05 3.3700684307772676e-04 3.2923125415439201e-04  4.5630991954776688e-04 -4.3501897992959788e-04 1.1309439002434400e-04 -3.1678069587316948e-04 3.0093156309909263e-04 -1.0114865962281407e-04 -3.7949634281151458e-04 3.7758980224407142e-04 -7.3409108803501841e-05  3.9314712675120387e-04 -4.3709307680600659e-04 4.8131765515338989e-05 -1.7142570570459335e-04 2.1430247386518083e-04 -1.7547044478899462e-05 -1.9277611020921792e-04 2.4654714148783096e-04 3.9590533102751768e-05  -6.5887260954471886e-05 1.0647109970301771e-04 -1.9525112949086285e-04 -1.1111825225986152e-05 -1.7597153591375960e-05 8.1942332377264975e-05 8.2693019177419651e-05 -1.4302962224874009e-04 -1.1414720174347475e-04  -1.9646152599716831e-04 2.3148423379133350e-04 3.5369882246876893e-05 1.7219915064163425e-04 -1.4596782690964592e-04 -7.1686450462825886e-05 -5.1338958480964453e-05 5.1533179791766269e-05 -1.5879614553323416e-06  4.5923844317283848e-04 -5.6733574561533909e-04 5.3627733254556133e-05 -9.8037810234234425e-05 1.6047077710364412e-04 -3.7420361815014707e-05 3.0861174164330041e-05 -3.2307026278748391e-05 4.1857584561587933e-05  4.4398203260203706e-04 -4.2242856518233076e-04 2.0734923427382857e-05 -7.3668806788037392e-05 9.2156963385800269e-05 -3.6168948203751380e-05 -2.0480203949061609e-04 2.2141463874225049e-04 2.5303836405101081e-05  4.3829544021679688e-04 -5.3885058957522036e-04 -7.9732489710856083e-05 -3.6514996427056861e-04 3.9427907571445932e-04 -8.9490398093178331e-06 -2.0782316616368887e-04 2.1599374684864040e-04 -1.8998263414732657e-05  -2.1888134785540689e-04 2.1914781670893943e-04 1.0283378452510153e-05 2.0790124201535738e-04 -1.9146942148438319e-04 4.4242122973410203e-05 -7.8696638097107942e-06 6.7447876168184161e-06 -2.3656326284654939e-04  4.5288763983801814e-04 -4.4919560428064066e-04 7.4007374308228901e-05 -4.5291661833837051e-04 4.0880477227390788e-04 -5.9075451992575732e-05 1.7532616628363395e-04 -1.4071499929358582e-04 -2.5801538831479720e-06  -8.1561956969169449e-05 4.6983637424450648e-04 -5.2830491434481953e-04 -9.3899908204758567e-05 1.5275933301621460e-04 -1.5803344751614173e-04 5.6131024528718271e-05 -1.8724664949550595e-04 2.1040331031999844e-04  -1.2548345755273266e-05 7.0454673624964969e-04 -8.2142314398457269e-04 1.2135923787473440e-04 6.2644189852894335e-04 -6.6484135932863239e-04 -3.8284709711866229e-05 -3.7820887077869833e-04 4.1239623549912919e-04  -2.7773724151684557e-05 -2.5306034719582493e-04 2.7257481681952709e-04 3.1147157882465722e-04 -4.1795572831082551e-04 3.4633130790632263e-04 -1.1099482253784952e-04 1.0919792073988601e-04 -4.3594651892380676e-05  -1.0265252534715795e-04 4.8651342577491705e-04 -3.9874335118142873e-04 -3.1586936909015583e-04 9.7732644042842543e-04 -1.0159801412361238e-03 6.3911008673061230e-05 -2.9520889987583540e-04 4.6680404566352865e-04  9.9999891262294994e-05 1.8319593818240634e-04 -9.8559753609037671e-05 -9.5808357190550739e-05 4.6333978132831948e-04 -5.0155468908103624e-04 3.1577605339029377e-05 -2.0136479749510762e-04 2.9200930887257544e-04  -8.5522990144428808e-05 -5.1133722389331567e-05 1.9747544132752741e-04 4.3580186794164362e-04 6.9542701613594749e-04 -8.2191049570702103e-04 -5.5503578149880659e-05 -3.0092861176960660e-04 3.1712154832305560e-04  -4.2579705848251836e-05 3.5429885015333083e-04 -4.2446693038596106e-04 -5.9818984372379130e-04 -4.9818206990310729e-04 6.4115483112209769e-04 1.2651238592400723e-04 1.4020365713734523e-04 -1.2923307573390054e-04  8.7785680195497892e-07 -8.3700244326879384e-04 9.6072089671143273e-04 -7.5315684212249988e-05 5.2134648657809661e-04 -6.9540158256599415e-04 5.3894453268410113e-06 -3.2495436032165236e-04 4.1259912681426019e-04  4.1314991153406695e-04 3.5619092323385799e-05 -1.7891272883205269e-04 2.5400798665956192e-05 -2.1112860283857546e-04 2.3575659642595438e-04 7.1639704558452036e-05 7.3915875923387831e-05 -1.1118616029424115e-04  1.4707196621898279e-05 -3.6363412524681503e-04 -4.3290991807948872e-04 3.5807857641956685e-05 2.4408218436415384e-04 2.9880890738414727e-04 -1.6233573077673437e-06 1.1452426594510333e-04 1.6432264319409784e-04  -9.1523824887190195e-05 -5.7579843989937114e-04 -5.6243458711295320e-04 9.2998317977137737e-05 3.4489940141164418e-04 2.7893319722851047e-04 2.4815007676483070e-06 2.6615411779273368e-04 3.4105845556953504e-04  -6.7975253713730647e-05 -5.1969606291788655e-04 -4.3411470254085685e-04 -6.3502453368118712e-05 3.4528633599977215e-04 3.3177974505394040e-04 -3.1466478294771860e-06 2.5759890079530336e-04 3.4791109145576680e-04  2.9208484023392629e-04 -4.4990441451422350e-04 -4.9787054585000926e-04 1.4199513857720045e-04 3.9909305951454032e-04 2.8542524365441507e-04 7.7865188959683201e-05 1.7169803165683402e-04 1.8259355448055543e-04  -1.5720066903118413e-05 -2.6752238216155508e-04 -2.8129487485644989e-04 1.9839220951151229e-04 6.4568815938683766e-04 6.0691411537241297e-04 6.0112628271552428e-05 2.6803187886816001e-04 3.1160787194049326e-04  -1.2175308237221168e-04 5.7131279121932338e-04 4.2625516960429269e-04 -2.5140725385342866e-04 4.7654963419894043e-04 5.4545313953611465e-04 -1.3510756453263443e-04 2.7993093532388986e-04 3.2557605192019091e-04  2.2360680146272437e-04 8.3120908489874880e-04 8.2774364918348131e-04 -2.0701432719856983e-04 2.8590647726161320e-04 2.5550897832982849e-04 -9.9480734842791464e-05 1.8391219670133675e-04 2.1253899772198214e-04  -9.5732184929682961e-05 5.2198199722813029e-04 5.6347999204818631e-04 -5.0754279965101871e-05 3.8525533721362723e-04 4.2101999503524671e-04 -1.6199707520630118e-05 1.6897959766009566e-04 2.1142665686449164e-04  -9.4729020938008306e-05 2.7547327864538057e-04 2.9300754963359463e-04 -1.3031941696153691e-05 3.3625450106635672e-04 3.7678222084267969e-04 -2.0299318461687017e-05 1.2992334494884376e-04 1.2631828318448600e-04  4.1435102017651213e-04 4.3890360546147200e-05 3.7814546093645191e-04 -2.8957084975371971e-04 -6.9847192405216011e-05 -2.3756151935763967e-04 2.5306579429532999e-04 -3.3558508581005387e-05 2.1579536764658260e-04  4.5670521323682323e-04 1.5825300572190321e-05 6.0761526531558248e-04 -2.2023565341252875e-04 -5.9702224660671135e-05 -2.4105463245374417e-04 1.7226025978230714e-04 5.0616608883856228e-05 2.3143517385901523e-04  6.8174186923198319e-04 -4.5054547154717623e-06 8.5813362790349511e-04 -2.0487520447589602e-04 5.2984905541893294e-05 -2.8440363848391246e-04 -3.0053484487959027e-05 7.1346455287056541e-05 7.9865968734151214e-06  7.5104297454291159e-04 1.6494568081914685e-04 1.0609302852451303e-03 -1.6819195840722738e-04 3.2278581887691919e-06 -2.1948111289799222e-04 1.9559092449830032e-05 -1.0060102240072093e-04 8.8275481812611704e-05  4.0076404328815958e-04 2.4904462871788815e-05 7.2533852311679008e-04 7.5159075585328608e-05 -1.0088127181177618e-04 1.1482766903447219e-04 -1.5848145287146792e-04 4.2746326405967149e-05 7.5125855300910767e-05  5.2924340909614031e-04 -1.0580495709445498e-04 5.9674928560525802e-04 4.0950299305286613e-04 -4.8499821852944500e-06 4.0394798097698718e-04 -3.1165466274623899e-04 -9.4262154733950709e-05 -3.0710157335788341e-05  5.3996793262611243e-04 -3.9277576241605122e-05 5.9261078635651574e-04 4.5755079238714031e-04 1.0781292201875168e-05 4.3127571572775452e-04 5.3152892964680215e-05 -7.1336714838181334e-05 1.7011878407196512e-04  4.0477381624198853e-04 -1.3370134550577843e-04 4.7736820286106219e-04 4.1499524549558727e-04 -1.0026760988992984e-04 4.4004236185630385e-04 2.3527913675570054e-04 7.3996378582925738e-05 2.3576071729811802e-04  3.2707986179284269e-04 2.3759003824472354e-06 4.3827829803613999e-04 3.5699713693375173e-04 -6.7011998587436649e-06 4.2656759821128702e-04 1.2653834738690926e-04 -3.3338932168196445e-05 1.8118646661138845e-04  -2.1116495165565502e-05 -3.8774944482622225e-04 3.9141064755684177e-04 3.0319021774819851e-05 4.0769915239695050e-04 -3.7596456080943796e-04 -2.8963866388209111e-05 -1.6850550254581559e-04 1.3770374156360388e-04  -7.5511224474325645e-05 -4.5792960883764061e-04 5.1557280757616398e-04 6.1347871237461319e-05 4.9655667326366573e-04 -5.2216359378367324e-04 2.6468201111896537e-06 -2.8552278167335091e-04 2.7220547659066578e-04  1.9534474512105526e-04 -4.7186088848037250e-04 5.3312504669395346e-04 -3.3938953881822155e-05 5.1730964225798213e-04 -5.9316139940899116e-04 1.6922192010609308e-05 -3.4302499389148895e-04 3.1547670225806482e-04  