# vtk DataFile Version 2.0
VTK from Matlab
ASCII
DATASET POLYDATA
POINTS 2430 float
0.98 -0.00 18.68 0.00 -0.00 18.75 1.51 0.58 18.53 
0.51 -0.66 18.66 0.48 0.85 18.62 -1.12 0.01 18.66 
-0.54 -0.89 18.60 0.98 -0.00 -18.68 0.00 -0.00 -18.75 
0.67 -0.55 -18.67 1.03 0.59 -18.62 -0.88 -0.16 -18.69 
-0.03 0.67 -18.68 1.94 -0.00 -18.48 1.83 -0.71 -18.43 
2.87 -0.00 -18.16 2.86 0.65 -18.09 2.37 -0.81 -18.24 
1.98 1.08 -18.28 3.75 -0.00 -17.72 3.19 -0.84 -17.90 
4.58 -0.00 -17.20 4.67 -0.65 -17.06 4.38 0.74 -17.24 
3.67 1.02 -17.59 3.79 -1.05 -17.51 5.36 -0.00 -16.59 
4.91 0.85 -16.82 6.08 -0.00 -15.92 5.68 0.87 -16.16 
5.92 -0.73 -15.98 5.24 -1.01 -16.50 6.74 -0.00 -15.19 
6.40 0.86 -15.43 6.34 -0.85 -15.50 7.35 -0.00 -14.42 
6.99 0.80 -14.76 6.95 -0.82 -14.80 7.91 -0.00 -13.61 
7.48 -0.64 -14.15 7.62 0.75 -13.92 8.42 -0.00 -12.77 
8.10 0.85 -13.15 8.06 -0.84 -13.22 8.88 -0.00 -11.90 
8.60 -0.82 -12.28 8.69 0.74 -12.15 9.31 -0.00 -11.02 
9.00 0.63 -11.56 9.04 -0.85 -11.40 9.69 -0.00 -10.11 
9.43 -0.85 -10.54 9.38 0.80 -10.66 10.03 -0.00 -9.19 
9.79 0.85 -9.62 9.78 -0.83 -9.65 10.33 -0.00 -8.25 
10.07 1.03 -8.69 10.10 -0.83 -8.73 10.59 -0.00 -7.30 
10.40 -0.68 -7.81 10.39 0.85 -7.76 10.82 -0.00 -6.35 
10.64 0.85 -6.81 10.63 -0.84 -6.85 11.02 -0.00 -5.38 
10.84 -0.88 -5.88 10.85 0.84 -5.86 11.18 -0.00 -4.41 
11.01 -0.88 -4.93 11.05 0.72 -4.89 11.31 -0.00 -3.44 
11.17 0.85 -3.91 11.16 -0.69 -4.18 11.40 -0.00 -2.46 
11.29 0.84 -2.94 11.32 -0.64 -2.86 11.17 -1.12 -3.51 
11.46 -0.00 -1.47 11.38 -0.72 -2.05 11.36 0.85 -1.96 
11.50 -0.00 -0.49 11.41 0.85 -0.98 11.42 -0.79 -1.07 
11.50 -0.00 0.49 11.43 0.84 0.01 11.45 -0.69 -0.03 
11.46 -0.00 1.47 11.42 -0.80 0.92 11.41 0.85 0.98 
11.40 -0.00 2.46 11.34 -0.98 1.93 11.36 0.85 1.96 
11.31 -0.00 3.44 11.28 -0.82 3.03 11.29 0.84 2.94 
11.18 -0.00 4.41 11.19 -0.65 3.99 11.18 0.87 3.87 
11.02 -0.00 5.38 11.03 0.90 4.84 11.07 -0.57 4.89 
10.82 -0.00 6.35 10.84 0.88 5.89 10.87 -0.92 5.67 
10.59 -0.00 7.30 10.60 0.96 6.88 10.64 -0.88 6.77 
10.33 -0.00 8.25 10.38 0.76 7.85 10.39 -0.85 7.76 
10.03 -0.00 9.19 10.12 0.78 8.71 10.22 -0.68 8.42 
9.69 -0.00 10.11 9.70 -0.91 9.82 9.83 0.79 9.54 
9.94 -1.19 8.96 9.31 -0.00 11.02 9.38 -0.70 10.71 
9.43 0.85 10.53 8.88 -0.00 11.90 9.03 0.99 11.34 
9.07 -0.53 11.45 8.42 -0.00 12.77 8.64 -0.90 12.18 
8.58 0.85 12.30 7.91 -0.00 13.61 8.11 0.73 13.17 
8.10 -0.85 13.15 7.35 -0.00 14.42 7.57 -0.81 13.97 
7.57 0.67 14.01 6.74 -0.00 15.19 6.96 -0.80 14.79 
7.05 0.89 14.65 6.08 -0.00 15.92 6.46 0.84 15.38 
6.34 -0.85 15.50 5.36 -0.00 16.59 5.56 0.99 16.23 
5.86 -0.65 16.06 4.58 -0.00 17.20 4.81 -0.70 16.94 
4.91 0.85 16.82 5.29 -1.07 16.44 3.75 -0.00 17.72 
4.12 -1.01 17.33 4.29 0.68 17.32 2.87 -0.00 18.16 
2.90 0.59 18.09 3.47 -0.72 17.79 3.67 0.96 17.61 
1.94 -0.00 18.48 2.01 -0.60 18.40 2.68 -1.06 18.04 
1.98 1.02 18.30 1.08 -1.07 18.48 1.26 -1.50 -18.27 
0.43 -1.34 -18.44 -0.23 -0.77 -18.65 1.80 -1.53 18.13 
2.86 1.58 -17.74 2.72 1.53 17.82 4.47 -1.54 -16.85 
4.52 -1.60 16.78 6.35 1.59 15.13 5.89 1.51 15.67 
7.56 -1.33 -13.74 7.02 -1.57 -14.33 8.08 1.56 12.77 
7.77 1.27 13.46 8.95 1.27 -11.34 9.29 -1.55 10.38 
9.00 -1.29 11.23 10.29 -1.55 -7.45 10.17 -1.30 -8.14 
10.21 1.62 7.64 10.09 1.38 8.31 11.03 -1.54 3.69 
10.97 -1.31 4.63 11.21 -1.55 -1.69 11.19 -1.38 -2.64 
7.02 -1.55 14.34 6.42 -1.61 15.04 10.89 1.72 4.27 
11.03 1.69 3.30 11.24 1.61 -0.52 11.18 1.68 -1.46 
10.54 1.59 -6.38 10.29 1.72 -7.24 6.62 1.59 -14.82 
5.85 1.66 -15.61 8.96 -1.82 -10.86 8.61 -1.51 -11.85 
9.51 1.51 9.85 9.21 1.54 10.57 10.33 -1.60 7.24 
10.14 -1.48 8.04 10.89 -1.70 -4.33 10.72 -1.69 -5.34 
11.24 -1.53 1.14 11.25 -1.56 0.35 10.88 1.76 -4.25 
11.10 1.45 -3.39 5.07 1.75 16.27 4.32 1.44 17.01 
-0.91 1.11 18.49 -0.34 1.73 18.25 1.16 1.44 18.31 
0.52 1.65 18.28 6.26 -1.82 -15.08 5.81 -1.50 -15.75 
1.07 1.56 -18.27 0.59 1.04 -18.55 0.26 1.47 -18.39 
9.71 1.61 -9.24 9.49 1.29 -10.09 8.46 -1.87 11.83 
8.08 -1.65 12.71 8.47 1.42 -12.20 7.93 1.78 -12.85 
7.69 1.36 -13.53 2.21 -1.52 -18.01 11.24 1.59 0.39 
11.21 1.61 1.38 10.52 1.76 6.20 10.72 1.73 5.26 
10.63 -1.94 5.29 10.51 -1.73 6.32 9.45 -1.48 -10.03 
9.66 -1.67 -9.30 3.64 -1.97 17.11 3.14 -1.46 17.67 
4.14 -2.44 16.42 5.00 -2.04 16.12 3.18 -2.72 16.72 
2.97 -2.27 17.23 4.57 -2.82 15.74 3.67 -3.14 15.98 
5.41 -2.43 15.42 5.72 -1.58 15.79 5.01 -3.19 14.93 
4.19 -3.46 15.24 3.60 1.93 -17.16 4.40 1.48 -16.94 
2.63 2.43 -17.24 1.89 1.97 -17.85 3.31 2.74 -16.64 
4.20 2.31 -16.49 5.84 -2.80 14.60 6.00 -2.21 15.04 
5.41 -3.51 14.10 4.58 -3.82 14.38 6.24 -3.10 13.77 
6.54 -2.34 14.31 5.81 -3.79 13.21 5.00 -4.07 13.57 
6.61 -3.37 12.90 6.95 -2.67 13.40 6.14 -4.04 12.34 
5.22 -4.43 12.63 6.94 -3.62 11.98 7.26 -3.00 12.51 
6.46 -4.25 11.43 5.66 -4.63 11.66 7.27 -3.81 11.08 
7.63 -3.16 11.67 6.76 -4.43 10.53 5.97 -4.81 10.77 
7.56 -3.98 10.16 7.98 -3.30 10.75 7.05 -4.58 9.58 
6.24 -4.99 9.84 7.83 -4.12 9.23 8.28 -3.45 9.83 
7.30 -4.71 8.65 6.49 -5.11 8.98 8.08 -4.24 8.29 
8.65 -3.49 8.86 7.54 -4.81 7.71 6.73 -5.22 8.06 
8.31 -4.33 7.34 8.84 -3.68 7.84 7.76 -4.89 6.75 
6.97 -5.31 7.12 8.52 -4.40 6.38 9.02 -3.80 6.89 
7.97 -4.95 5.79 7.17 -5.39 6.18 8.72 -4.44 5.42 
9.21 -3.86 5.96 8.16 -4.99 4.83 7.34 -5.45 5.24 
8.90 -4.46 4.45 9.40 -3.88 4.99 8.33 -5.00 3.86 
7.55 -5.47 4.23 9.05 -4.47 3.48 9.65 -3.81 3.97 
8.50 -4.98 2.89 7.72 -5.48 3.26 9.20 -4.45 2.51 
9.63 -3.96 3.05 8.65 -4.94 1.92 8.06 -5.34 2.35 
9.33 -4.40 1.54 9.83 -3.84 2.22 8.76 -4.91 0.95 
8.07 -5.38 1.43 9.44 -4.33 0.56 10.05 -3.66 1.21 
8.87 -4.84 0.01 8.05 -5.43 0.40 9.53 -4.25 -0.41 
10.07 -3.67 0.09 8.89 -4.80 -1.00 8.30 -5.26 -0.40 
9.60 -4.15 -1.39 10.04 -3.69 -0.82 9.02 -4.64 -1.99 
8.52 -5.06 -1.62 8.06 -5.40 -1.14 9.66 -4.01 -2.36 
10.25 -3.39 -1.67 9.06 -4.52 -2.96 8.47 -5.04 -2.53 
9.69 -3.86 -3.34 10.21 -3.32 -2.73 9.09 -4.37 -3.93 
8.47 -4.93 -3.52 9.70 -3.69 -4.30 10.21 -3.16 -3.70 
9.10 -4.20 -4.90 8.46 -4.81 -4.51 10.34 -3.22 2.07 
10.25 -3.22 3.05 10.55 -3.02 -0.58 10.26 -3.03 4.03 
9.89 -3.39 4.62 9.68 -3.50 -5.27 10.19 -2.98 -4.63 
9.09 -4.01 -5.86 8.47 -4.63 -5.47 9.64 -3.28 -6.23 
10.16 -2.76 -5.53 9.05 -3.79 -6.82 8.45 -4.45 -6.43 
9.22 -2.65 9.10 9.39 -2.88 8.16 8.79 -2.97 9.61 
9.80 -3.29 5.50 9.65 -3.22 6.39 9.57 -3.06 -7.17 
10.12 -2.42 -6.60 8.98 -3.55 -7.77 8.40 -4.24 -7.39 
10.56 -2.87 -2.22 10.58 -2.70 -3.08 8.56 -2.81 10.41 
8.26 -2.60 11.36 9.48 -2.78 -8.12 9.92 -2.36 -7.49 
8.89 -3.29 -8.71 8.32 -4.01 -8.35 7.12 -2.04 13.84 
7.56 -2.19 13.05 10.55 -1.61 -6.33 10.45 -2.10 -5.84 
9.35 -2.50 -9.02 9.85 -1.92 -8.42 8.76 -3.00 -9.63 
8.23 -3.75 -9.28 10.53 -2.30 -4.93 10.57 -2.50 -4.02 
3.78 -1.76 -17.17 3.14 -1.74 -17.52 5.01 -1.85 -16.25 
4.22 -2.22 -16.56 5.09 1.77 -16.24 1.79 1.91 17.91 
2.46 2.37 17.36 3.48 1.83 17.29 6.86 1.77 14.39 
7.42 1.28 13.97 6.17 2.41 14.67 5.60 2.15 15.49 
6.68 2.63 13.82 7.38 1.98 13.52 9.18 -2.20 -9.90 
8.60 -2.69 -10.54 8.10 -3.46 -10.21 1.87 2.65 -17.31 
1.14 2.22 -17.83 7.62 -4.41 -8.88 7.72 -4.63 -7.93 
7.87 -5.29 -4.06 7.86 -5.16 -5.04 7.45 -5.78 -0.53 
7.25 -5.90 0.35 7.34 -5.83 1.29 6.49 -5.84 5.68 
6.38 -5.73 6.61 5.41 -5.30 10.13 5.19 -5.09 11.05 
7.32 -5.79 2.27 7.10 -5.85 3.02 6.79 -5.94 3.74 
2.54 -2.23 -17.44 3.47 -2.34 -16.92 7.89 -5.39 -3.07 
7.93 -5.43 -2.13 6.27 -5.59 7.54 6.15 -5.44 8.44 
7.83 -5.01 -6.00 7.78 -4.83 -6.97 4.45 -4.89 12.39 
4.34 -4.54 13.26 4.96 -4.86 11.92 3.25 -3.72 15.46 
2.95 -3.31 16.18 3.55 -4.19 14.54 4.13 -4.30 13.92 
7.94 -3.15 -11.12 8.39 -2.34 -11.46 7.39 -3.87 -10.75 
7.52 -4.15 -9.82 7.22 -3.56 -11.66 7.74 -2.80 -12.03 
6.62 -4.21 -11.26 6.76 -4.50 -10.33 7.02 -3.21 -12.57 
6.45 -3.91 -12.16 7.51 -2.43 -12.88 8.11 -2.00 -12.34 
6.25 -3.55 -13.07 6.79 -2.83 -13.43 5.65 -4.19 -12.65 
5.83 -4.50 -11.75 6.02 -3.16 -13.94 5.45 -3.85 -13.51 
6.50 -2.40 -14.30 7.22 -2.05 -13.69 5.21 -3.46 -14.38 
5.75 -2.73 -14.78 4.60 -4.07 -13.95 4.84 -4.39 -13.12 
4.93 -3.01 -15.22 4.34 -3.68 -14.81 5.46 -2.27 -15.53 
4.05 -3.22 -15.65 4.63 -2.58 -15.94 3.44 -3.83 -15.19 
3.71 -4.24 -14.34 3.15 -3.37 -16.01 3.76 -2.78 -16.34 
6.87 -4.76 -9.38 6.08 -5.06 -9.88 5.96 -4.79 -10.83 
6.18 -5.29 -8.94 6.97 -4.98 -8.44 5.36 -5.53 -9.42 
5.25 -5.30 -10.36 6.27 -5.49 -7.98 5.45 -5.75 -8.46 
5.13 -5.03 -11.30 4.43 -5.47 -10.83 4.55 -5.72 -9.87 
4.30 -5.19 -11.76 4.99 -4.72 -12.23 7.05 -5.18 -7.48 
5.53 -5.93 -7.50 6.34 -5.67 -7.01 4.69 -6.14 -7.98 
4.61 -5.95 -8.93 5.60 -6.09 -6.53 4.77 -6.30 -7.01 
6.41 -5.82 -6.04 7.11 -5.35 -6.52 5.65 -6.22 -5.56 
4.83 -6.45 -6.04 6.46 -5.94 -5.07 7.17 -5.50 -5.55 
5.70 -6.33 -4.58 4.88 -6.57 -5.07 6.50 -6.05 -4.09 
7.20 -5.63 -4.58 5.73 -6.42 -3.61 4.91 -6.67 -4.09 
6.53 -6.13 -3.11 7.24 -5.72 -3.60 5.76 -6.49 -2.62 
4.94 -6.74 -3.11 6.55 -6.18 -2.13 7.27 -5.79 -2.59 
5.78 -6.54 -1.64 4.97 -6.80 -2.13 6.57 -6.22 -1.15 
7.30 -5.83 -1.61 4.98 -6.83 -1.15 5.79 -6.56 -0.66 
4.16 -7.06 -1.64 4.14 -7.01 -2.62 4.04 -6.75 -5.54 
3.99 -6.62 -6.51 3.61 -5.55 -11.39 3.76 -5.82 -10.38 
4.17 -7.08 -0.66 4.99 -6.85 -0.17 3.33 -7.26 -1.14 
3.32 -7.23 -2.12 4.18 -7.08 0.33 3.35 -7.27 -0.17 
4.99 -6.84 0.82 5.79 -6.57 0.32 4.18 -7.06 1.31 
3.39 -7.26 0.82 4.12 -6.94 -3.60 4.08 -6.86 -4.57 
3.84 -6.29 -8.44 3.92 -6.47 -7.47 4.98 -6.81 1.80 
5.79 -6.55 1.30 4.16 -7.02 2.29 3.36 -7.23 1.77 
4.14 -4.89 -12.66 3.41 -5.31 -12.20 2.80 -4.35 -14.68 
2.51 -3.93 -15.51 4.97 -6.76 2.78 5.78 -6.50 2.29 
4.15 -6.96 3.28 3.35 -7.19 2.74 4.96 -6.69 3.76 
5.80 -6.43 3.26 4.14 -6.88 4.23 3.33 -7.12 3.72 
4.93 -6.59 4.73 5.78 -6.34 4.24 4.11 -6.78 5.20 
3.37 -7.02 4.65 4.90 -6.47 5.70 5.72 -6.25 5.21 
4.08 -6.65 6.20 3.32 -6.90 5.70 4.86 -6.33 6.69 
5.67 -6.12 6.17 4.06 -6.50 7.14 3.32 -6.76 6.64 
3.07 -4.66 -13.93 3.97 -4.55 -13.54 6.57 -6.19 1.79 
6.57 -6.23 0.81 4.82 -6.17 7.65 5.62 -5.97 7.11 
3.88 -6.36 8.09 3.37 -6.62 7.37 2.22 -3.44 -16.32 
2.86 -2.86 -16.73 4.76 -5.97 8.61 5.58 -5.79 8.04 
3.92 -6.12 9.10 3.13 -6.39 8.77 2.88 -6.61 7.97 
4.70 -5.75 9.57 5.64 -5.51 9.08 3.86 -5.89 10.06 
3.07 -6.18 9.68 6.59 -5.93 4.72 6.58 -6.23 -0.15 
3.30 -7.17 -3.11 3.82 -6.08 -9.39 4.61 -5.51 10.51 
[...]
POINT_DATA 2430
VECTORS normals float
0.15 -0.04 0.99 0.01 0.02 1.00 0.17 0.19 0.97 0.06 -0.20 0.98 0.03 0.27 0.96 -0.13 0.03 0.99 -0.07 -0.28 0.96 0.15 -0.02 -0.99 0.02 0.01 -1.00 0.08 -0.19 -0.98 0.15 0.19 -0.97 -0.09 -0.03 -1.00 -0.02 0.23 -0.97 0.27 0.03 -0.96 0.23 -0.23 -0.95 0.38 -0.03 -0.92 0.38 0.20 -0.90 0.33 -0.21 -0.92 0.26 0.32 -0.91 0.49 -0.00 -0.87 0.41 -0.25 -0.88 0.58 0.03 -0.81 0.57 -0.18 -0.80 0.54 0.20 -0.82 0.46 0.30 -0.84 0.48 -0.30 -0.83 0.65 -0.02 -0.76 0.60 0.23 -0.76 0.72 0.01 -0.70 0.66 0.23 -0.71 0.68 -0.18 -0.71 0.62 -0.27 -0.74 0.76 -0.00 -0.65 0.72 0.22 -0.66 0.72 -0.21 -0.66 0.80 0.00 -0.60 0.77 0.20 -0.61 0.76 -0.21 -0.62 0.84 0.00 -0.54 0.80 -0.17 -0.57 0.81 0.18 -0.56 0.87 -0.00 -0.50 0.84 0.20 -0.51 0.83 -0.19 -0.52 0.89 -0.01 -0.45 0.87 -0.18 -0.47 0.87 0.16 -0.46 0.91 -0.01 -0.41 0.89 0.13 -0.43 0.89 -0.19 -0.42 0.93 -0.00 -0.37 0.90 -0.18 -0.39 0.91 0.17 -0.39 0.95 0.01 -0.32 0.92 0.17 -0.34 0.92 -0.17 -0.34 0.96 0.01 -0.29 0.93 0.20 -0.30 0.93 -0.19 -0.31 0.97 0.00 -0.25 0.95 -0.15 -0.27 0.94 0.19 -0.27 0.98 -0.00 -0.22 0.96 0.17 -0.23 0.96 -0.17 -0.23 0.98 -0.01 -0.18 0.97 -0.17 -0.20 0.97 0.16 -0.20 0.99 0.00 -0.15 0.97 -0.17 -0.16 0.97 0.16 -0.16 0.99 -0.01 -0.12 0.98 0.16 -0.13 0.98 -0.15 -0.14 1.00 0.01 -0.08 0.98 0.16 -0.09 0.99 -0.13 -0.10 0.97 -0.21 -0.12 1.00 0.00 -0.05 0.99 -0.14 -0.06 0.98 0.17 -0.06 1.00 0.01 -0.02 0.99 0.16 -0.03 0.99 -0.16 -0.03 1.00 0.01 0.02 0.99 0.16 -0.00 0.99 -0.15 -0.00 1.00 -0.00 0.05 0.99 -0.16 0.03 0.99 0.16 0.03 1.00 -0.00 0.08 0.98 -0.19 0.07 0.98 0.16 0.06 0.99 0.01 0.11 0.98 -0.16 0.10 0.98 0.17 0.10 0.99 0.01 0.15 0.98 -0.14 0.13 0.98 0.17 0.13 0.98 0.01 0.19 0.97 0.18 0.16 0.98 -0.12 0.16 0.98 0.00 0.22 0.96 0.18 0.20 0.96 -0.19 0.19 0.97 0.00 0.25 0.95 0.20 0.23 0.96 -0.18 0.23 0.96 0.00 0.28 0.95 0.16 0.27 0.95 -0.17 0.26 0.94 -0.03 0.33 0.94 0.16 0.31 0.94 -0.15 0.30 0.93 0.00 0.37 0.92 -0.19 0.35 0.93 0.17 0.34 0.92 -0.24 0.32 0.91 0.02 0.41 0.91 -0.16 0.39 0.91 0.18 0.38 0.89 0.01 0.45 0.88 0.22 0.42 0.89 -0.13 0.43 0.87 -0.01 0.49 0.86 -0.20 0.46 0.86 0.19 0.46 0.84 -0.01 0.54 0.84 0.17 0.51 0.84 -0.20 0.51 0.80 -0.00 0.60 0.80 -0.19 0.56 0.81 0.16 0.56 0.76 0.00 0.65 0.76 -0.20 0.61 0.76 0.22 0.61 0.71 0.01 0.70 0.72 0.21 0.66 0.72 -0.21 0.66 0.65 -0.01 0.76 0.66 0.24 0.72 0.68 -0.18 0.71 0.57 -0.01 0.82 0.59 -0.20 0.78 0.60 0.23 0.77 0.62 -0.29 0.73 0.49 0.01 0.87 0.51 -0.27 0.82 0.54 0.19 0.82 0.38 -0.05 0.92 0.38 0.19 0.91 0.44 -0.21 0.87 0.46 0.28 0.84 0.28 0.05 0.96 0.26 -0.20 0.94 0.34 -0.31 0.89 0.27 0.30 0.91 0.16 -0.31 0.94 0.16 -0.42 -0.89 0.05 -0.41 -0.91 -0.03 -0.23 -0.97 0.23 -0.44 0.87 0.35 0.43 -0.83 0.34 0.42 0.84 0.53 -0.39 -0.75 0.53 -0.42 0.74 0.69 0.39 0.61 0.65 0.38 0.66 0.78 -0.32 -0.54 0.74 -0.37 -0.57 0.81 0.35 0.48 0.80 0.30 0.52 0.87 0.27 -0.42 0.87 -0.33 0.37 0.87 -0.29 0.41 0.92 -0.32 -0.24 0.92 -0.27 -0.29 0.91 0.33 0.26 0.91 0.29 0.28 0.95 -0.30 0.12 0.95 -0.26 0.15 0.95 -0.30 -0.05 0.96 -0.27 -0.08 0.74 -0.37 0.57 0.69 -0.39 0.61 0.93 0.33 0.14 0.94 0.33 0.11 0.95 0.30 -0.02 0.95 0.32 -0.05 0.92 0.32 -0.21 0.91 0.34 -0.24 0.70 0.38 -0.60 0.65 0.40 -0.65 0.84 -0.37 -0.39 0.84 -0.34 -0.43 0.88 0.32 0.34 0.87 0.33 0.38 0.91 -0.33 0.24 0.91 -0.30 0.28 0.94 -0.32 -0.14 0.93 -0.32 -0.17 0.96 -0.29 0.04 0.95 -0.30 0.01 0.93 0.34 -0.14 0.95 0.29 -0.11 0.57 0.44 0.69 0.51 0.39 0.76 -0.10 0.31 0.95 -0.04 0.48 0.88 0.15 0.41 0.90 0.05 0.49 0.87 0.67 -0.43 -0.60 0.65 -0.37 -0.66 0.14 0.44 -0.88 0.09 0.32 -0.94 0.03 0.43 -0.90 0.89 0.33 -0.32 0.89 0.29 -0.36 0.81 -0.40 0.43 0.80 -0.37 0.47 0.83 0.33 -0.45 0.79 0.40 -0.47 0.79 0.32 -0.52 0.28 -0.43 -0.86 0.95 0.31 0.01 0.95 0.31 0.05 0.91 0.35 0.20 0.92 0.34 0.17 0.91 -0.38 0.17 0.92 -0.34 0.20 0.88 -0.31 -0.36 0.89 -0.34 -0.31 0.43 -0.51 0.75 0.40 -0.42 0.82 0.45 -0.59 0.67 0.55 -0.50 0.67 0.34 -0.66 0.67 0.34 -0.57 0.74 0.47 -0.65 0.60 0.37 -0.71 0.60 0.56 -0.57 0.60 0.64 -0.40 0.66 0.48 -0.69 0.54 0.39 -0.75 0.54 0.41 0.51 -0.75 0.52 0.40 -0.76 0.30 0.61 -0.73 0.24 0.53 -0.81 0.35 0.65 -0.67 0.46 0.57 -0.68 0.57 -0.63 0.54 0.62 -0.51 0.59 0.49 -0.72 0.48 0.41 -0.77 0.49 0.58 -0.66 0.48 0.66 -0.53 0.54 0.50 -0.75 0.43 0.42 -0.79 0.44 0.59 -0.69 0.43 0.66 -0.58 0.48 0.51 -0.77 0.39 0.42 -0.82 0.39 0.59 -0.71 0.39 0.66 -0.61 0.43 0.52 -0.78 0.35 0.45 -0.83 0.35 0.60 -0.72 0.35 0.67 -0.63 0.39 0.53 -0.79 0.31 0.46 -0.84 0.31 0.61 -0.73 0.31 0.68 -0.65 0.35 0.54 -0.80 0.28 0.46 -0.84 0.27 0.62 -0.74 0.27 0.69 -0.66 0.31 0.55 -0.80 0.24 0.47 -0.85 0.25 0.62 -0.74 0.24 0.71 -0.65 0.27 0.55 -0.81 0.21 0.48 -0.85 0.22 0.63 -0.75 0.21 0.71 -0.67 0.24 0.56 -0.81 0.18 0.49 -0.85 0.19 0.64 -0.75 0.18 0.71 -0.68 0.20 0.57 -0.81 0.16 0.50 -0.85 0.16 0.64 -0.75 0.15 0.71 -0.68 0.17 0.58 -0.81 0.13 0.50 -0.85 0.13 0.65 -0.75 0.12 0.72 -0.68 0.14 0.59 -0.80 0.10 0.51 -0.85 0.11 0.66 -0.74 0.10 0.74 -0.66 0.11 0.60 -0.80 0.08 0.52 -0.85 0.08 0.67 -0.74 0.07 0.73 -0.68 0.09 0.61 -0.79 0.05 0.55 -0.83 0.06 0.68 -0.73 0.04 0.74 -0.66 0.06 0.62 -0.79 0.02 0.55 -0.84 0.04 0.69 -0.72 0.02 0.77 -0.64 0.03 0.63 -0.78 0.00 0.54 -0.84 0.01 0.70 -0.72 -0.01 0.77 -0.64 0.00 0.63 -0.78 -0.03 0.57 -0.82 -0.01 0.71 -0.70 -0.04 0.77 -0.64 -0.02 0.65 -0.76 -0.05 0.59 -0.81 -0.04 0.55 -0.84 -0.03 0.73 -0.69 -0.07 0.80 -0.60 -0.05 0.66 -0.75 -0.08 0.59 -0.80 -0.07 0.74 -0.67 -0.10 0.80 -0.60 -0.08 0.67 -0.73 -0.11 0.60 -0.79 -0.09 0.75 -0.65 -0.13 0.81 -0.58 -0.11 0.68 -0.72 -0.14 0.61 -0.78 -0.12 0.81 -0.58 0.06 0.81 -0.58 0.09 0.83 -0.55 -0.02 0.83 -0.55 0.12 0.78 -0.61 0.14 0.76 -0.63 -0.16 0.82 -0.55 -0.14 0.70 -0.70 -0.17 0.62 -0.77 -0.15 0.78 -0.60 -0.19 0.83 -0.52 -0.17 0.71 -0.68 -0.20 0.63 -0.76 -0.18 0.80 -0.52 0.29 0.79 -0.56 0.26 0.75 -0.58 0.31 0.78 -0.60 0.17 0.78 -0.59 0.19 0.79 -0.57 -0.22 0.86 -0.47 -0.21 0.72 -0.65 -0.24 0.64 -0.74 -0.21 0.85 -0.52 -0.06 0.86 -0.50 -0.09 0.75 -0.56 0.35 0.75 -0.54 0.39 0.80 -0.54 -0.26 0.85 -0.46 -0.24 0.74 -0.62 -0.27 0.65 -0.72 -0.25 0.71 -0.47 0.52 0.73 -0.49 0.47 0.92 -0.32 -0.21 0.89 -0.42 -0.19 0.82 -0.50 -0.30 0.88 -0.38 -0.29 0.75 -0.59 -0.31 0.67 -0.69 -0.28 0.88 -0.44 -0.15 0.87 -0.47 -0.13 0.45 -0.47 -0.76 0.38 -0.46 -0.80 0.56 -0.47 -0.68 0.47 -0.55 -0.69 0.57 0.44 -0.69 0.22 0.52 0.82 0.29 0.60 0.74 0.40 0.50 0.77 0.71 0.42 0.56 0.77 0.31 0.55 0.62 0.55 0.56 0.59 0.52 0.61 0.64 0.58 0.50 0.74 0.45 0.50 0.83 -0.45 -0.34 0.76 -0.54 -0.35 0.68 -0.66 -0.32 0.20 0.66 -0.72 0.14 0.60 -0.79 0.58 -0.77 -0.26 0.57 -0.79 -0.22 0.54 -0.83 -0.11 0.55 -0.83 -0.13 0.49 -0.87 -0.01 0.47 -0.88 0.01 0.48 -0.88 0.03 0.43 -0.89 0.14 0.43 -0.89 0.17 0.39 -0.88 0.28 0.39 -0.87 0.31 0.49 -0.87 0.05 0.47 -0.88 0.08 0.44 -0.89 0.09 0.29 -0.59 -0.75 0.38 -0.59 -0.71 0.54 -0.84 -0.08 0.54 -0.84 -0.05 0.43 -0.88 0.19 0.43 -0.87 0.22 0.56 -0.81 -0.16 0.57 -0.80 -0.19 0.34 -0.87 0.36 0.35 -0.85 0.40 0.39 -0.86 0.35 0.30 -0.79 0.54 0.29 -0.74 0.60 0.31 -0.82 0.48 0.35 -0.82 0.44 0.69 -0.62 -0.36 0.77 -0.49 -0.40 0.61 -0.72 -0.33 0.60 -0.75 -0.29 0.62 -0.69 -0.38 0.70 -0.58 -0.41 0.53 -0.77 -0.34 0.52 -0.80 -0.30 0.63 -0.65 -0.42 0.54 -0.75 -0.39 0.71 -0.53 -0.46 0.78 -0.44 -0.45 0.55 -0.71 -0.43 0.64 -0.60 -0.48 0.47 -0.79 -0.39 0.46 -0.81 -0.35 0.56 -0.67 -0.49 0.47 -0.76 -0.44 0.65 -0.54 -0.54 0.72 -0.47 -0.51 0.48 -0.72 -0.50 0.57 -0.61 -0.55 0.40 -0.80 -0.45 0.40 -0.82 -0.41 0.48 -0.67 -0.56 0.40 -0.76 -0.51 0.57 -0.54 -0.61 0.40 -0.72 -0.57 0.48 -0.61 -0.63 0.31 -0.79 -0.52 0.32 -0.83 -0.46 0.31 -0.75 -0.59 0.39 -0.66 -0.64 0.52 -0.81 -0.27 0.45 -0.85 -0.27 0.46 -0.83 -0.31 0.44 -0.86 -0.24 0.51 -0.83 -0.23 0.38 -0.89 -0.25 0.38 -0.88 -0.28 0.44 -0.87 -0.21 0.37 -0.90 -0.22 0.39 -0.86 -0.32 0.32 -0.90 -0.29 0.32 -0.91 -0.26 0.32 -0.89 -0.33 0.39 -0.85 -0.36 0.50 -0.84 -0.20 0.37 -0.91 -0.19 0.43 -0.88 -0.18 0.31 -0.93 -0.20 0.31 -0.92 -0.23 0.37 -0.92 -0.16 0.31 -0.94 -0.17 0.43 -0.89 -0.15 0.50 -0.85 -0.17 0.37 -0.92 -0.14 0.31 -0.94 -0.15 0.43 -0.90 -0.13 0.49 -0.86 -0.14 0.36 -0.92 -0.11 0.31 -0.94 -0.12 0.42 -0.90 -0.10 0.48 -0.87 -0.12 0.36 -0.93 -0.09 0.31 -0.95 -0.10 0.42 -0.90 -0.08 0.48 -0.87 -0.09 0.36 -0.93 -0.06 0.30 -0.95 -0.07 0.42 -0.91 -0.05 0.48 -0.88 -0.06 0.36 -0.93 -0.04 0.30 -0.95 -0.05 0.42 -0.91 -0.03 0.48 -0.88 -0.04 0.30 -0.95 -0.03 0.36 -0.93 -0.02 0.25 -0.97 -0.04 0.25 -0.97 -0.06 0.25 -0.96 -0.13 0.25 -0.96 -0.15 0.26 -0.91 -0.31 0.26 -0.93 -0.27 0.25 -0.97 -0.01 0.30 -0.95 -0.00 0.20 -0.98 -0.03 0.20 -0.98 -0.05 0.25 -0.97 0.01 0.20 -0.98 -0.00 0.30 -0.95 0.02 0.36 -0.93 0.01 0.25 -0.97 0.03 0.20 -0.98 0.02 0.25 -0.96 -0.08 0.25 -0.96 -0.11 0.25 -0.94 -0.21 0.25 -0.95 -0.18 0.30 -0.95 0.04 0.36 -0.93 0.03 0.25 -0.97 0.05 0.20 -0.98 0.04 0.32 -0.87 -0.37 0.26 -0.90 -0.34 0.24 -0.85 -0.48 0.23 -0.81 -0.53 0.31 -0.95 0.06 0.36 -0.93 0.05 0.25 -0.96 0.07 0.20 -0.98 0.06 0.31 -0.95 0.09 0.37 -0.93 0.08 0.25 -0.96 0.10 0.20 -0.98 0.08 0.31 -0.94 0.11 0.37 -0.92 0.10 0.26 -0.96 0.12 0.20 -0.97 0.11 0.31 -0.94 0.14 0.37 -0.92 0.13 0.26 -0.96 0.15 0.21 -0.97 0.13 0.31 -0.94 0.16 0.37 -0.92 0.15 0.26 -0.95 0.17 0.21 -0.97 0.16 0.25 -0.87 -0.43 0.32 -0.85 -0.42 0.42 -0.91 0.04 0.42 -0.91 0.02 0.32 -0.93 0.19 0.37 -0.91 0.18 0.25 -0.95 0.20 0.21 -0.96 0.18 0.22 -0.77 -0.60 0.30 -0.69 -0.66 0.32 -0.92 0.22 0.38 -0.90 0.21 0.26 -0.94 0.23 0.20 -0.96 0.22 0.18 -0.96 0.19 0.33 -0.91 0.25 0.40 -0.89 0.24 0.27 -0.93 0.26 0.21 -0.95 0.24 0.44 -0.89 0.12 0.42 -0.91 -0.01 0.20 -0.98 -0.07 0.26 -0.94 -0.24 0.33 -0.90 0.28 0.27 -0.92 0.30 0.21 -0.94 0.27 0.82 -0.31 -0.48 0.78 -0.38 -0.50 0.25 -0.89 -0.38 0.33 -0.89 0.32 0.27 -0.90 0.33 0.21 -0.93 0.31 0.21 -0.91 0.35 0.28 -0.88 0.37 0.82 0.38 0.43 0.74 0.51 0.44 0.74 0.54 0.39 0.82 0.42 0.39 0.66 0.63 0.40 0.66 0.60 0.45 0.67 0.65 0.35 0.75 0.56 0.35 0.58 0.73 0.36 0.58 0.71 0.40 0.59 0.74 0.32 0.67 0.67 0.32 0.51 0.80 0.32 0.50 0.79 0.35 0.15 -0.99 -0.01 0.15 -0.99 0.01 0.15 -0.99 0.07 0.15 -0.98 0.09 0.15 -0.95 0.26 0.14 -0.96 0.23 0.60 0.75 0.28 0.52 0.81 0.28 0.16 -0.98 0.14 0.17 -0.97 0.17 0.51 0.67 0.55 0.55 0.67 0.50 0.68 0.68 0.28 0.76 0.58 0.31 0.53 0.81 0.25 0.61 0.75 0.25 0.45 0.85 0.25 0.44 0.85 0.28 0.54 0.81 0.22 0.47 0.86 0.22 0.62 0.76 0.22 0.69 0.68 0.25 0.55 0.81 0.19 0.48 0.86 0.19 0.63 0.76 0.19 0.70 0.69 0.21 0.49 0.86 0.17 0.56 0.81 0.16 0.42 0.89 0.17 0.40 0.89 0.20 0.50 0.86 0.14 0.43 0.89 0.15 0.57 0.81 0.14 0.63 0.76 0.16 0.51 0.85 0.12 0.44 0.89 0.12 0.58 0.81 0.11 0.64 0.75 0.13 0.45 0.89 0.10 0.52 0.85 0.09 0.38 0.92 0.10 0.37 0.92 0.13 0.46 0.89 0.07 0.39 0.92 0.08 0.53 0.85 0.07 0.59 0.80 0.08 0.40 0.91 0.05 0.47 0.88 0.05 0.34 0.94 0.06 0.33 0.94 0.08 0.41 0.91 0.03 0.35 0.94 0.04 0.48 0.88 0.02 0.54 0.84 0.04 0.43 0.90 0.01 0.36 0.93 0.02 0.49 0.87 0.00 0.55 0.83 0.02 0.37 0.93 -0.01 0.44 0.90 -0.02 0.31 0.95 0.00 0.30 0.95 0.02 0.39 0.92 -0.03 0.32 0.95 -0.02 0.20 -0.96 -0.19 0.20 -0.95 -0.22 0.20 -0.91 -0.36 0.20 -0.93 -0.32 0.14 -0.83 -0.54 0.16 -0.86 -0.48 0.45 0.89 -0.04 0.51 0.86 -0.02 0.40 0.92 -0.05 0.34 0.94 -0.04 0.47 0.88 -0.06 0.52 0.85 -0.05 0.41 0.91 -0.08 0.35 0.94 -0.07 0.48 0.87 -0.09 0.54 0.84 -0.07 0.43 0.90 -0.10 0.36 0.93 -0.09 0.50 0.86 -0.11 0.55 0.83 -0.10 0.44 0.89 -0.13 0.37 0.92 -0.12 0.51 0.85 -0.14 0.57 0.81 -0.13 0.46 0.88 -0.16 0.39 0.91 -0.14 0.53 0.83 -0.17 0.59 0.79 -0.16 0.40 0.90 -0.17 0.47 0.86 -0.18 0.34 0.93 -0.16 0.32 0.94 -0.13 0.28 0.96 -0.04 0.29 0.96 -0.06 0.35 0.92 -0.18 0.42 0.89 -0.20 0.28 0.94 -0.17 0.27 0.95 -0.14 0.36 0.91 -0.21 0.30 0.93 -0.20 0.44 0.87 -0.23 0.49 0.84 -0.22 0.31 0.92 -0.23 0.38 0.89 -0.24 0.24 0.95 -0.21 0.23 0.96 -0.18 0.26 0.94 -0.24 0.33 0.91 -0.26 0.51 0.82 -0.25 0.45 0.85 -0.26 0.60 0.80 -0.06 0.58 0.81 -0.03 0.65 0.75 -0.14 0.63 0.77 -0.11 0.67 0.72 -0.17 0.61 0.77 -0.19 0.73 0.66 -0.16 0.71 0.69 -0.13 0.13 -0.78 -0.62 0.20 -0.70 -0.69 0.06 -0.83 -0.56 0.08 -0.86 -0.50 0.15 -0.99 -0.06 0.15 -0.99 -0.04 0.15 -0.99 0.03 0.15 -0.99 0.05 0.25 0.97 0.01 0.26 0.96 -0.01 0.28 0.96 0.07 0.29 0.96 0.05 0.61 0.79 0.03 0.60 0.80 0.06 0.30 0.95 -0.08 0.31 0.94 -0.10 0.35 0.92 0.17 0.36 0.92 0.15 0.27 0.96 0.09 0.32 0.94 0.11 0.22 0.97 0.07 0.23 0.97 0.05 0.21 0.97 0.10 0.26 0.96 0.11 0.71 0.68 0.15 0.70 0.69 0.18 0.38 0.89 0.26 0.39 0.89 0.23 0.15 -0.94 0.32 0.15 -0.95 0.29 0.15 -0.92 0.36 0.21 -0.90 0.39 0.72 0.68 0.13 0.65 0.75 0.10 0.15 -0.99 -0.08 0.20 -0.98 -0.09 0.09 -0.99 -0.07 0.10 -0.99 -0.05 0.09 -0.99 -0.09 0.15 -0.98 -0.10 0.37 0.88 0.29 0.43 0.84 0.32 0.08 -0.94 0.34 0.09 -0.95 0.30 0.31 0.91 0.26 0.33 0.92 0.23 0.30 0.91 0.29 0.36 0.88 0.32 0.24 0.93 0.26 0.26 0.94 0.23 0.23 0.93 0.29 0.29 0.90 0.32 0.18 0.95 0.27 0.19 0.95 0.24 0.21 0.92 0.33 0.16 0.94 0.30 0.08 -0.92 0.38 0.14 -0.90 0.41 0.27 0.89 0.36 0.35 0.87 0.36 0.20 0.91 0.36 0.14 0.93 0.33 0.02 -0.94 0.35 0.02 -0.95 0.31 0.01 -0.92 0.40 0.08 -0.90 0.43 0.21 0.96 0.21 0.27 0.94 0.20 0.15 0.97 0.21 0.13 0.96 0.24 0.16 0.97 0.19 0.22 0.96 0.18 0.10 0.98 0.19 0.08 0.97 0.22 -0.05 -0.93 0.37 -0.04 -0.94 0.33 0.00 -0.89 0.45 -0.06 -0.91 0.42 -0.03 -0.96 0.29 0.04 -0.96 0.27 -0.09 -0.95 0.31 -0.11 -0.93 0.35 -0.08 -0.96 0.27 -0.02 -0.97 0.26 -0.15 -0.95 0.29 -0.16 -0.93 0.32 -0.14 -0.96 0.26 -0.08 -0.97 0.24 0.16 0.98 0.08 0.17 0.98 0.06 0.04 -1.00 -0.08 0.05 -1.00 -0.06 0.19 0.95 -0.23 0.18 0.96 -0.20 0.20 0.94 -0.26 0.27 0.92 -0.27 0.04 -0.99 -0.10 0.09 -0.99 -0.11 -0.00 -1.00 -0.09 -0.00 -1.00 -0.07 0.04 -0.99 -0.12 -0.00 -0.99 -0.11 -0.00 -1.00 -0.05 0.05 -1.00 -0.03 -0.05 -1.00 -0.06 -0.05 -1.00 -0.08 -0.05 -1.00 -0.03 -0.00 -1.00 -0.02 0.07 -0.87 0.48 0.15 -0.88 0.46 -0.00 -0.86 0.50 -0.07 -0.88 0.47 0.07 -0.84 0.54 0.15 -0.84 0.52 -0.08 -0.84 0.53 -0.01 -0.82 0.57 -0.15 -0.85 0.50 -0.13 -0.89 0.44 -0.17 -0.81 0.56 -0.10 -0.79 0.61 -0.24 -0.82 0.53 -0.21 -0.86 0.46 -0.20 -0.74 0.65 -0.26 -0.76 0.60 -0.12 -0.71 0.70 -0.02 -0.76 0.65 -0.22 -0.63 0.74 -0.30 -0.66 0.69 -0.14 -0.59 0.79 -0.04 -0.67 0.75 -0.33 -0.52 0.79 -0.24 -0.48 0.84 0.15 0.98 0.10 0.20 0.97 0.12 0.11 0.99 0.09 0.12 0.99 0.06 -0.10 -0.99 -0.04 -0.10 -0.99 -0.07 0.13 0.97 -0.21 0.14 0.96 -0.24 -0.10 -0.99 -0.02 -0.05 -1.00 -0.01 -0.15 -0.99 -0.03 -0.15 -0.99 -0.06 -0.15 -0.99 -0.01 -0.10 -1.00 -0.00 -0.10 -0.99 -0.09 -0.15 -0.99 -0.08 0.12 0.98 -0.18 0.17 0.97 -0.17 -0.20 -0.98 -0.02 -0.20 -0.98 -0.04 -0.20 -0.98 -0.00 -0.15 -0.99 0.01 -0.25 -0.97 -0.01 -0.26 -0.97 -0.03 -0.25 -0.97 0.01 -0.20 -0.98 0.02 -0.31 -0.95 0.00 -0.31 -0.95 -0.02 -0.31 -0.95 0.02 -0.25 -0.97 0.03 -0.20 -0.94 0.27 -0.22 -0.93 0.31 -0.37 -0.93 -0.01 -0.36 -0.93 0.01 0.07 0.98 -0.20 0.08 0.97 -0.23 -0.37 -0.93 -0.03 -0.31 -0.95 -0.04 -0.43 -0.90 -0.02 -0.42 -0.91 0.00 -0.43 -0.90 -0.05 -0.37 -0.93 -0.06 -0.36 -0.93 0.04 -0.42 -0.91 0.03 0.07 0.98 -0.17 0.12 0.98 -0.16 -0.49 -0.87 -0.03 -0.49 -0.87 -0.01 0.02 0.98 -0.19 0.03 0.98 -0.21 0.01 0.99 -0.16 0.06 0.99 -0.15 -0.04 0.98 -0.18 -0.03 0.98 -0.20 -0.49 -0.87 -0.06 -0.43 -0.90 -0.07 -0.04 0.99 -0.15 0.01 0.99 -0.14 -0.09 0.98 -0.17 -0.09 0.98 -0.19 -0.10 0.99 -0.14 -0.05 0.99 -0.13 -0.15 0.98 -0.16 -0.14 0.97 -0.18 -0.15 0.98 -0.13 -0.10 0.99 -0.12 -0.20 0.97 -0.15 -0.20 0.96 -0.17 -0.15 0.98 -0.11 -0.20 0.97 -0.12 -0.20 0.96 -0.20 -0.14 0.97 -0.21 0.04 0.97 -0.24 0.09 0.96 -0.26 -0.56 -0.83 -0.05 -0.55 -0.83 -0.02 -0.26 0.95 -0.19 -0.26 0.95 -0.16 -0.26 0.94 -0.22 -0.19 0.95 -0.23 -0.32 0.93 -0.21 -0.32 0.93 -0.18 -0.32 0.92 -0.24 -0.26 0.93 -0.25 -0.38 0.90 -0.23 -0.38 0.90 -0.20 -0.38 0.89 -0.26 -0.32 0.91 -0.27 -0.45 0.86 -0.25 -0.44 0.87 -0.22 -0.45 0.84 -0.29 -0.39 0.87 -0.29 -0.40 0.90 -0.18 -0.44 0.88 -0.20 -0.52 0.81 -0.28 -0.51 0.82 -0.25 -0.53 0.79 -0.31 -0.46 0.83 -0.32 -0.60 0.74 -0.31 -0.59 0.76 -0.27 -0.61 0.71 -0.35 -0.53 0.77 -0.35 -0.68 0.65 -0.34 -0.67 0.68 -0.30 -0.70 0.61 -0.38 -0.62 0.68 -0.39 -0.77 0.52 -0.37 -0.75 0.58 -0.33 -0.78 0.47 -0.41 -0.71 0.56 -0.43 -0.84 0.36 -0.40 -0.84 0.42 -0.35 -0.85 0.29 -0.44 -0.79 0.41 -0.46 -0.89 0.17 -0.42 -0.89 0.25 -0.38 -0.88 0.08 -0.47 -0.84 0.24 -0.50 -0.66 0.71 -0.26 -0.72 0.63 -0.29 -0.90 -0.05 -0.43 -0.92 0.05 -0.38 -0.87 -0.15 -0.47 -0.86 -0.01 -0.51 -0.90 -0.18 -0.39 -0.87 -0.27 -0.42 -0.40 0.86 -0.32 -0.33 0.89 -0.30 -0.90 0.24 -0.35 -0.94 0.06 -0.35 -0.92 -0.13 -0.36 -0.82 -0.35 -0.45 -0.84 -0.23 -0.50 -0.80 -0.45 -0.40 -0.85 -0.37 -0.38 -0.74 -0.52 -0.43 -0.77 -0.42 -0.48 -0.71 -0.59 -0.38 -0.77 -0.53 -0.35 -0.62 0.66 -0.42 -0.67 0.58 -0.47 -0.76 0.44 -0.49 -0.65 -0.65 -0.40 -0.68 -0.58 -0.44 -0.62 -0.70 -0.35 -0.68 -0.65 -0.33 -0.80 -0.28 -0.53 -0.74 -0.40 -0.53 -0.70 -0.52 -0.49 -0.56 -0.75 -0.36 -0.59 -0.70 -0.41 -0.59 -0.74 -0.31 -0.53 -0.78 -0.32 -0.65 -0.70 -0.29 -0.74 -0.60 -0.31 -0.47 -0.82 -0.34 -0.49 -0.78 -0.38 -0.45 -0.84 -0.30 -0.51 -0.81 -0.28 -0.19 -0.95 0.24 -0.13 -0.97 0.23 -0.25 -0.93 0.25 -0.27 -0.92 0.29 -0.41 -0.84 -0.35 -0.39 -0.87 -0.31 -0.43 -0.81 -0.40 -0.52 -0.73 -0.43 -0.37 -0.89 -0.28 -0.43 -0.86 -0.26 -0.24 -0.94 0.22 -0.18 -0.96 0.21 -0.31 -0.92 0.24 -0.32 -0.91 0.27 -0.10 0.99 -0.09 -0.05 0.99 -0.10 -0.16 0.98 -0.08 -0.20 0.97 -0.10 -0.11 0.99 -0.07 -0.06 0.99 -0.08 -0.16 0.99 -0.06 -0.21 0.97 -0.07 -0.56 -0.82 -0.07 -0.50 -0.86 -0.08 -0.62 -0.78 -0.03 -0.63 -0.77 -0.06 -0.62 -0.78 -0.01 -0.55 -0.83 0.00 -0.69 -0.72 -0.02 -0.70 -0.71 -0.05 -0.69 -0.72 0.01 -0.62 -0.79 0.02 -0.77 -0.64 -0.01 -0.77 -0.64 -0.04 -0.69 -0.72 0.03 -0.78 -0.63 0.02 -0.77 -0.63 -0.06 -0.70 -0.71 -0.08 -0.84 -0.53 -0.05 -0.84 -0.54 -0.02 -0.85 -0.52 -0.08 -0.78 -0.62 -0.09 -0.91 -0.41 -0.07 -0.91 -0.41 -0.03 -0.91 -0.39 -0.10 -0.85 -0.51 -0.11 -0.96 -0.26 -0.08 -0.96 -0.27 -0.05 -0.29 -0.94 0.21 -0.23 -0.95 0.20 -0.38 -0.89 0.25 -0.36 -0.91 0.22 -0.40 -0.87 0.29 -0.34 -0.89 0.31 -0.45 -0.85 0.27 -0.43 -0.87 0.24 -0.48 -0.82 0.31 -0.42 -0.85 0.33 -0.53 -0.79 0.29 -0.51 -0.82 0.26 -0.50 -0.79 0.35 -0.56 -0.76 0.33 -0.49 -0.84 0.22 -0.42 -0.88 0.21 -0.57 -0.79 0.24 -0.59 -0.76 0.28 -0.54 -0.81 0.21 -0.46 -0.87 0.19 -0.62 -0.75 0.23 -0.65 -0.71 0.26 -0.32 -0.90 -0.29 -0.33 -0.88 -0.33 -0.96 -0.24 -0.11 -0.92 -0.38 -0.13 -0.99 -0.10 -0.07 -0.99 -0.09 -0.09 -0.99 -0.12 -0.03 -0.96 -0.28 -0.02 -1.00 0.05 -0.05 -0.99 0.09 -0.08 -1.00 0.04 -0.01 -0.99 -0.13 -0.00 -0.98 0.21 -0.03 -0.98 0.21 -0.05 -0.98 0.20 0.00 -1.00 0.02 0.02 -0.94 0.35 -0.01 -0.93 0.37 -0.04 -0.94 0.34 0.02 -0.98 0.19 0.04 -0.88 0.48 0.01 -0.87 0.50 -0.02 -0.88 0.47 0.04 -0.94 0.34 0.05 -0.81 0.58 0.03 -0.81 0.59 0.00 -0.82 0.57 0.06 -0.90 0.44 0.07 -0.74 0.67 0.04 -0.74 0.67 0.01 -0.75 0.66 0.07 -0.83 0.56 0.08 -0.68 0.74 0.05 -0.67 0.74 0.03 -0.68 0.73 0.08 -0.76 0.64 0.10 -0.61 0.79 0.07 -0.60 0.80 0.04 -0.62 0.78 0.09 -0.69 0.71 0.11 -0.55 0.83 0.08 -0.53 0.85 0.05 -0.55 0.83 0.11 -0.62 0.77 0.12 -0.48 0.87 0.09 -0.49 0.87 0.07 -0.49 0.86 0.12 -0.56 0.82 0.13 -0.43 0.90 0.10 -0.42 0.90 0.08 -0.49 0.86 0.14 -0.43 0.90 0.13 -0.57 0.81 0.16 -0.63 0.76 0.15 -0.50 0.85 0.17 -0.43 0.89 0.15 -0.96 0.27 0.07 -0.99 0.09 0.07 -1.00 0.01 0.04 -0.58 0.80 0.19 -0.65 0.74 0.18 -0.51 0.84 0.20 -0.44 0.88 0.18 -0.58 0.78 0.22 -0.65 0.73 0.21 -0.52 0.82 0.23 -0.45 0.87 0.21 -0.59 0.76 0.26 -0.66 0.71 0.25 -0.53 0.81 0.27 -0.45 0.86 0.24 -0.66 0.75 -0.00 -0.74 0.68 -0.01 -0.37 0.92 0.13 -0.37 0.92 0.11 -0.89 0.45 -0.07 -0.95 0.29 -0.08 -0.84 0.53 -0.05 -0.61 0.74 0.29 -0.68 0.68 0.29 -0.54 0.79 0.30 -0.46 0.85 0.28 -0.73 0.65 0.21 -0.71 0.66 0.23 -0.38 0.90 0.18 -0.38 0.90 0.21 -0.62 0.71 0.33 -0.69 0.65 0.32 -0.55 0.76 0.35 -0.48 0.82 0.31 0.17 0.67 0.72 0.11 0.59 0.80 -0.30 -0.82 0.49 -0.32 -0.77 0.56 -0.30 -0.92 -0.26 -0.36 -0.90 -0.25 -0.64 0.67 0.38 -0.71 0.61 0.36 -0.56 0.73 0.39 -0.47 0.81 0.35 -0.65 0.63 0.43 -0.72 0.56 0.41 -0.57 0.69 0.44 -0.49 0.78 0.40 -0.66 0.57 0.48 -0.74 0.49 0.47 -0.59 0.64 0.50 -0.50 0.74 0.45 -0.68 0.50 0.54 -0.75 0.41 0.52 -0.60 0.58 0.56 -0.51 0.70 0.51 -0.38 0.87 0.33 -0.41 0.86 0.30 -0.41 0.84 0.37 -0.99 -0.07 -0.13 -0.99 0.05 -0.11 -0.20 -0.98 0.04 -0.15 -0.99 0.03 -0.25 -0.97 0.06 -0.31 -0.95 0.05 -0.20 -0.98 0.07 -0.15 -0.99 0.05 -0.19 -0.96 0.18 -0.13 -0.97 0.20 -0.11 0.99 -0.05 -0.07 1.00 -0.06 -0.46 0.89 0.05 -0.48 0.88 0.04 -0.53 0.84 0.03 -0.68 0.41 0.61 -0.75 0.31 0.58 -0.51 0.64 0.57 -0.60 0.49 0.63 -0.42 0.74 0.52 -0.42 0.78 0.46 -0.25 -0.93 -0.27 -0.26 -0.92 -0.30 -0.