# vtk DataFile Version 2.0
Surface Displacement
ASCII
DATASET UNSTRUCTURED_GRID
POINTS 252 double
60.437156677246094 71.45413208007812 23.991628646850586
63.09953308105469 73.82482147216797 25.957374572753906
60.19263458251953 74.15800476074219 25.622121810913086
62.49021530151367 76.04991912841797 24.568384170532227
64.72769165039062 74.24820709228516 24.792720794677734
63.54541015625 78.97358703613281 25.563859939575195
65.52021789550781 78.29704284667969 25.318782806396484
60.914878845214844 78.10929870605469 26.58871841430664
67.37598419189453 77.63551330566406 26.288904190063477
59.108306884765625 73.60582733154297 28.98878288269043
67.10585021972656 71.1829605102539 26.97955322265625
69.55574035644531 73.48014831542969 27.178253173828125
69.8270263671875 75.44683074951172 27.980270385742188
66.61212158203125 69.97266387939453 26.889455795288086
65.4202880859375 68.08702087402344 25.192859649658203
67.17890167236328 67.66786193847656 26.19883918762207
62.44355010986328 81.02134704589844 29.526914596557617
65.65644073486328 66.39307403564453 27.78333282470703
57.647708892822266 77.0412368774414 27.672731399536133
58.03337097167969 74.77227020263672 28.977054595947266
63.06671142578125 70.34822845458984 29.130373001098633
71.07425689697266 74.86569213867188 28.01918601989746
64.09967041015625 67.82852172851562 28.49265480041504
64.36237335205078 69.76889038085938 30.334762573242188
70.20545959472656 78.70513916015625 32.342376708984375
60.15277862548828 80.75691986083984 29.503507614135742
73.10575103759766 75.83802032470703 32.124881744384766
65.6765365600586 80.868896484375 34.41809844970703
70.9068374633789 76.9461441040039 32.005653381347656
59.60870361328125 71.02759552001953 29.96832847595215
58.445560455322266 81.97808837890625 30.634977340698242
63.64886474609375 81.74037170410156 33.07478332519531
64.79450988769531 66.86215209960938 33.13018035888672
72.52153015136719 72.6397933959961 30.04444122314453
58.47502136230469 80.87899780273438 32.11534881591797
58.60915756225586 79.79936981201172 31.56011199951172
68.37388610839844 69.57693481445312 32.05364990234375
71.10054779052734 70.16918182373047 32.09070587158203
67.96711730957031 80.4270248413086 32.90447998046875
67.68424987792969 67.48699951171875 32.68819808959961
61.1077995300293 82.51087951660156 34.039466857910156
63.12470626831055 70.56181335449219 33.44712829589844
57.82206344604492 83.79928588867188 31.296112060546875
59.717369079589844 73.02079010009766 32.544559478759766
74.04381561279297 72.42112731933594 34.30194091796875
57.05278778076172 75.9590835571289 35.33771514892578
57.10797119140625 77.62348937988281 32.69989776611328
72.18141174316406 79.55441284179688 34.32659912109375
74.1299819946289 75.1784896850586 33.379676818847656
66.02413177490234 69.43380737304688 35.901214599609375
58.22844696044922 81.63800048828125 36.225013732910156
57.135807037353516 82.55220031738281 35.29457092285156
58.16219711303711 83.63969421386719 35.47412872314453
73.07540130615234 69.22992706298828 34.31837844848633
68.16763305664062 69.55023193359375 35.17726135253906
76.23640441894531 74.60311889648438 34.83050537109375
76.32032775878906 80.97232055664062 38.610008239746094
60.91729736328125 82.3768539428711 36.400211334228516
76.53748321533203 76.830322265625 36.351985931396484
62.87847137451172 70.93546295166016 36.130271911621094
59.070316314697266 73.7230224609375 40.837642669677734
56.26056671142578 77.6761245727539 37.262752532958984
74.76441955566406 68.34825134277344 37.95579528808594
69.69419860839844 81.88915252685547 39.903533935546875
71.65650177001953 68.1580810546875 37.826969146728516
77.5544662475586 73.74810028076172 38.09150695800781
58.89181900024414 81.14093780517578 39.658756256103516
64.70781707763672 83.23443603515625 40.86688995361328
72.97974395751953 82.99285888671875 40.22502899169922
76.52180480957031 65.23117065429688 37.55534362792969
77.09410095214844 67.27706909179688 36.3609733581543
75.75259399414062 66.58352661132812 35.647830963134766
76.64730834960938 69.05277252197266 39.93247985839844
57.49631118774414 80.69438934326172 39.3027229309082
77.91799926757812 79.110595703125 39.19073486328125
68.37036895751953 68.74848937988281 41.98680877685547
62.479644775390625 70.79508972167969 41.133419036865234
78.48992919921875 75.27740478515625 42.191280364990234
65.71910095214844 69.6908187866211 40.4447021484375
77.28509521484375 83.63554382324219 43.40283203125
59.911746978759766 80.8293685913086 42.14948272705078
58.16366958618164 77.3858413696289 41.445098876953125
70.85191345214844 67.24110412597656 41.091915130615234
62.92136764526367 83.1432113647461 43.21113204956055
73.76020050048828 66.7624282836914 41.06612014770508
77.54954528808594 66.49777221679688 43.39055252075195
60.894798278808594 71.86427307128906 43.66564178466797
74.47062683105469 66.10474395751953 43.76352310180664
78.32887268066406 71.5392837524414 42.616939544677734
78.43351745605469 81.42736053466797 43.039207458496094
67.91197967529297 82.66722106933594 44.871456146240234
71.88246154785156 83.72700500488281 43.10205841064453
58.70697784423828 75.53207397460938 45.488731384277344
77.20909118652344 68.67955017089844 43.647666931152344
60.30165100097656 79.53015899658203 46.099891662597656
64.42052459716797 82.4320297241211 45.6965446472168
74.08512878417969 84.49803161621094 44.33406448364258
79.27996826171875 73.50707244873047 43.68372344970703
64.18505859375 68.61039733886719 45.074485778808594
79.38737487792969 78.98098754882812 45.41618728637695
79.61749267578125 69.57463073730469 46.203487396240234
68.17729949951172 65.53565216064453 44.48930358886719
62.33283233642578 80.70848846435547 44.72563171386719
79.40010833740234 66.96784973144531 44.677032470703125
65.75473022460938 81.89053344726562 47.25590515136719
69.63750457763672 64.30303955078125 45.564022064208984
66.24710845947266 67.63815307617188 47.050018310546875
80.61762237548828 77.07772064208984 48.321495056152344
80.66944885253906 81.55156707763672 46.42793655395508
63.16106414794922 71.0193862915039 47.63505172729492
81.72854614257812 75.66700744628906 49.40497970581055
76.95260620117188 87.49732208251953 44.78372573852539
77.18961334228516 66.22509765625 45.24813461303711
72.53569030761719 64.9783706665039 46.1270751953125
79.72837829589844 87.0199966430664 47.06199264526367
81.68452453613281 72.2220687866211 48.01398468017578
63.33152389526367 80.97640228271484 48.27491760253906
80.67496490478516 64.2337646484375 44.85091018676758
78.92478942871094 63.59955978393555 44.702388763427734
68.65127563476562 64.4453125 46.68964385986328
61.31971740722656 74.21552276611328 47.70395278930664
80.61451721191406 66.77099609375 47.658226013183594
76.535400390625 63.99066162109375 47.89046859741211
78.17613983154297 62.65308380126953 47.09709930419922
74.55237579345703 87.0909423828125 46.76887512207031
72.83500671386719 84.94259643554688 50.07920455932617
71.06379699707031 84.20116424560547 47.430850982666016
69.57015991210938 62.307308197021484 46.389404296875
75.86490631103516 88.32221984863281 51.10857391357422
80.51336669921875 69.60137176513672 50.52995300292969
64.64735412597656 69.44135284423828 49.73527908325195
71.46002960205078 62.54771423339844 48.29820251464844
75.36178588867188 62.060455322265625 48.176353454589844
61.88279342651367 78.65504455566406 48.59590530395508
81.32684326171875 62.95140075683594 50.06617736816406
81.81094360351562 64.91815185546875 49.896240234375
66.86886596679688 81.46839904785156 50.23278045654297
65.62902069091797 81.01244354248047 48.48539352416992
69.39222717285156 83.12046813964844 49.141754150390625
81.89517974853516 87.68807220458984 46.95746994018555
80.5110092163086 89.77548217773438 46.22169494628906
68.74300384521484 62.7757568359375 49.96238327026367
73.33930969238281 60.16553497314453 50.23558807373047
64.44662475585938 75.61833190917969 48.93754959106445
78.06548309326172 60.5859375 48.96393966674805
68.72093963623047 75.2680892944336 50.917030334472656
65.37187957763672 72.0981674194336 51.05256652832031
82.33145904541016 89.40377807617188 49.14848327636719
80.60598754882812 85.83296966552734 49.23082733154297
67.83202362060547 65.24321746826172 51.57804870605469
66.14319610595703 66.81390380859375 51.28818130493164
80.28992462158203 90.637451171875 49.40751647949219
73.39103698730469 86.51927185058594 54.37995910644531
77.48345947265625 89.47637939453125 50.342716217041016
81.50180053710938 81.68711853027344 52.87092590332031
68.95392608642578 80.90460205078125 50.8359375
69.35952758789062 77.74444580078125 52.72825241088867
81.24656677246094 85.54106903076172 53.15529251098633
81.54229736328125 71.45055389404297 53.55525207519531
70.54214477539062 60.889244079589844 52.182579040527344
71.62858581542969 80.7403793334961 53.00508499145508
82.26345825195312 59.86152267456055 50.76506423950195
81.89044952392578 63.32334518432617 51.99979782104492
72.82010650634766 83.63761901855469 52.99320983886719
83.8205337524414 61.63453674316406 54.80231857299805
70.91563415527344 75.81046295166016 53.82855224609375
82.6978759765625 87.00811767578125 52.692649841308594
69.65840148925781 63.24501037597656 53.860904693603516
67.82763671875 74.28559112548828 55.34651565551758
66.3690414428711 67.01252746582031 55.45998001098633
73.0688247680664 59.17906951904297 55.03425598144531
80.17697143554688 78.47211456298828 54.29625701904297
80.56840515136719 68.06944274902344 57.102020263671875
66.44861602783203 68.71136474609375 57.04970932006836
77.96167755126953 58.811561584472656 53.464111328125
74.34191131591797 78.8742446899414 54.033756256103516
78.98042297363281 90.2699203491211 53.49058151245117
81.99150848388672 88.94759368896484 54.118221282958984
78.56778717041016 79.63589477539062 55.95557403564453
80.76158142089844 82.5892333984375 55.354373931884766
83.12559509277344 60.186641693115234 56.49066925048828
75.35771942138672 80.09685516357422 54.945709228515625
82.18325805664062 74.91851806640625 55.75079345703125
[...]
POINT_DATA 252
VECTORS displacement double
-0.5349065338525931 0.3116606440000922 -0.9787999658546163
-0.6879492122058443 0.3934382635174458 -1.3897763779980608
-0.7762862335863472 0.54770742543338 -1.2505840972136433
-0.9293539504869271 0.6774042049540725 -1.6347976587445991
-0.6668907418387329 0.38762097713108545 -1.5316849462869762
-1.0876866252671613 0.7956165424581059 -1.8758519896791448
-0.915276169110609 0.635470659590375 -1.8368147825455878
-1.1244048642503661 0.8157448207128439 -1.6781338417736897
-0.7750092550991573 0.43547961105753075 -1.759932349905558
-0.6362510354697475 0.5151373614884918 -1.0510772295438997
-0.3502593502121992 -0.12863909885006564 -1.2559513613179938
-0.4444836587888263 -0.0177052281775687 -1.5021367558186114
-0.5795990163460496 0.13178514837971278 -1.6086253900415066
-0.286751834650251 -0.20182294754042118 -1.083602788561688
-0.20371779424912528 -0.21179700398205625 -0.8356845642284441
-0.143957299861442 -0.35130055414571615 -0.8169542984623348
-1.2995675531496078 0.8591743671390901 -1.9238673592484474
-0.1088367812099173 -0.37223538501051223 -0.5173056784600298
-1.0123139179345215 0.7655923713409862 -1.2946835186433852
-0.7538736348245332 0.6584006736330181 -1.0969599339577556
-0.35256762300726685 -0.013923497753971503 -0.8764287768886057
-0.5195758375713158 0.071833842042345 -1.5428714475758483
-0.19047496214043047 -0.2433632260225025 -0.5871505144571039
-0.3012387154074296 -0.1720198654043088 -0.854512939968707
-0.6808349999609165 0.090990413776602 -1.736538153270864
-1.3031812432471597 0.8995504985890719 -1.7769746009391945
-0.5293102025827279 0.11006413895058387 -1.6840145817082224
-0.7263146536778629 0.13862347262959673 -1.845382062667202
-0.6038770586305005 0.09965396408973248 -1.714898335365067
-0.35195739283867733 0.21551116790249836 -0.7555151341612216
-1.254230117082959 0.885688244928545 -1.6477561428389293
-1.0725888501161542 0.5491950058350881 -1.9693418526144342
-0.031467637946883065 -0.2762428197749287 -0.44607332161588786
-0.37949218003759516 -0.05330674220370213 -1.4625903189557121
-1.0337354938202068 0.7846516757937749 -1.6012638079226775
-1.0318879150265376 0.7889120654861728 -1.5703745303688876
-0.3800187130108151 -0.41822564149735086 -1.1685412650948663
-0.30274838128416237 -0.2828235074327097 -1.2602442864529806
-0.8025786529163239 0.15431562502219265 -1.817591960343961
-0.20904139776066016 -0.4196418526768184 -0.7937185265953524
-0.8666399793393043 0.45794032676928254 -1.7828753999640305
-0.17732891602748457 -0.04269416962069528 -0.8604321626554388
-1.1841875900775367 0.8211479730753481 -1.5399227649875122
-0.3855516807671874 0.3008255470314225 -0.9824828915061623
-0.30216244798118114 -0.02373400932917491 -1.4501129561689083
-0.27454807617252996 0.42589162954443793 -1.100150573810133
-0.7470815624884108 0.689716603641287 -1.2912447881287612
-0.5631417685826594 -0.04871446628393272 -1.6439569738749888
-0.4767081780084027 0.08732639505470985 -1.6702490442472815
0.009954688285759072 -0.15877400752989246 -0.8666469061707147
-0.40954004587162474 0.3523304154270548 -1.578399885044007
-0.5639643199128652 0.5053500590166067 -1.4243644740625
-0.5384132327055723 0.35418377667406986 -1.455898588310884
-0.16355444558293236 -0.21729532131717377 -1.0762216965295934
-0.11609195616747253 -0.2324076338265897 -1.0120520892965352
-0.3861506030023064 0.04728675914495284 -1.4732090246040173
-0.28038068027107566 0.06052732671010119 -1.1167898161956522
-0.40639254082831333 0.07352599949878424 -1.7177425324493356
-0.3807692445057094 0.06708859877180373 -1.4828809507147582
0.05873809854592549 -0.010418927474518114 -0.8691123147508115
0.7850333627339212 -0.01475249410223256 -0.8251183078462283
0.013920861858786604 0.3408317746138607 -1.1232108292928942
-0.057702487460324914 -0.3149087122717944 -0.897593190650575
0.058685349928294384 -0.3534319024699073 -1.35568069284135
0.035052401079083306 -0.26917123980554436 -0.8693521482059907
-0.24592261789777609 0.02155453806400942 -1.2115992490164516
0.40105060198468284 -0.17559237161820107 -1.4748891717976989
0.45796977794863575 -0.662578043897426 -1.3931705209436274
-0.055055201631433626 -0.14387963961499395 -1.126830602063297
0.02685160517848345 -0.40056691652176113 -0.49992740913126
-0.05948959425375633 -0.2687248224740344 -0.7098166871129656
-0.031168117908144166 -0.28472823938248837 -0.6870178867323276
-0.16081274901687537 -0.36507403953265083 -0.9380905808289413
0.36061923468204593 -0.018737001166336142 -1.324447995459149
-0.33124631864076415 0.14913517312932356 -1.043571087618968
0.455150623108012 -0.2000823747345848 -0.7020380773204771
0.7306313227660626 0.0018146166867509805 -0.7095434140358527
-0.5844346772786511 0.21994237405659334 -0.912351748514606
0.4799003969186237 -0.09617873611303907 -0.7596085290015715
-0.1868708908506686 0.30964130431678427 -0.7041682341347233
1.174157561778996 -0.6050183613690976 -1.2675318801012239
0.9902884920905146 -0.2166188305558805 -1.0467832265305503
0.23769463626474868 -0.3104199298177477 -0.6571208353559754
1.067454212581954 -0.8157357421952298 -1.2521347017568836
0.06174083806833164 -0.4669923481406215 -0.6851462984689896
-0.10413497288153745 -0.47516050985497316 -0.468226910539947
1.2183627255931069 0.03813029056997408 -0.6454495749484721
0.10119856190271775 -0.5205645153333549 -0.4365281852594727
-0.4708361871011049 -0.08340831511188895 -0.8646472814987121
-0.3595026425925977 0.32316586791485236 -0.709406608890216
0.7870991368252938 -0.49134603640719376 -1.0744856703239236
0.2554803894971258 -0.1356825791286269 -0.955119020920904
1.7135410916895262 -0.34572111287477014 -0.8324776502730167
-0.23207956902715632 -0.42373280849988504 -0.7409143971983276
2.3314504565724703 -1.009123238389833 -1.1249342869143995
1.3281629330197184 -0.8149422214465432 -1.1518465167193526
0.20842544617681413 0.1901894089098235 -0.716746268756836
-0.8140118895196706 0.2561472667476039 -0.7642953188815689
1.0785293010100594 0.0375968191249072 -0.47975160056850186
-0.6713508977994816 0.4822633977020274 -0.6124080537976688
-0.4363991861210233 -0.1464926174846255 -0.4305146270546949
0.6326891193789426 -0.16550389928123366 -0.26680559205574994
1.6678398183069607 -0.8838388190602302 -1.2057904270336195
-0.21223727877883736 -0.3404806306910757 -0.3307139971176234
1.305882424828162 -0.6949340263840327 -1.1000451826951263
0.5696878538114036 -0.2736465742140055 -0.06751668170342029
1.0246069481435476 -0.1272985041049992 -0.3855393103683049
-0.8022557719759167 0.4883108791629027 -0.49163307948688484
-0.5671278437826135 0.616113727996229 -0.37603013560584486
1.4777977354461254 -0.03816138583204065 -0.6343007442958388
-0.7886468101858484 0.36834213795788884 -0.43579311018931577
0.26434225517186416 0.7130757936922407 -0.20660107962889995
-0.03989771461677233 -0.49599266193376934 -0.27317957769493617
0.374420711686983 -0.49144428962443953 -0.06916595536819514
0.19911103521305912 1.1215964361914885 0.18313488107497733
-0.7688629701423494 0.18195681706096423 -0.40654429925413993
1.757331177132821 -0.8747166977970835 -1.1696168864959837
-0.0968093291338381 -0.3865782063287071 -0.021744212560953713
-0.011135174031537798 -0.4826380345315755 0.014238582001052436
0.7068247574849043 -0.2459876239777472 -0.04095047084297221
1.7360222265710354 -0.27089199380127127 -0.8435783721660748
-0.22186493874726265 -0.3619259824878398 -0.07691536562353463
0.17237173027254787 -0.6764067284525197 0.2705008596830538
0.084794381542522 -0.6181634668691203 0.3363294449693406
0.6417300868674016 0.7488074186209701 -0.12853635398761654
0.6908349035713611 0.34354926588144963 -0.4802579624373138
0.6830850168036363 -0.035163635033534035 -0.7289678166457385
0.5769377322199146 -0.26789765500696916 0.20383471453196833
0.5858672800854855 1.0693278698308433 0.17781075550380265
-0.27094758395275736 -0.36701807537690456 -0.2286798535935084
1.3958626825824518 -0.1593579198352657 -0.5438304738228581
0.5301034530295606 -0.54985369365275 0.4099404117782939
0.2698223630424849 -0.7326505090511191 0.5985993217174901
1.9733637829957436 -0.7741578718620588 -1.128181048073241
-0.01573609684161348 -0.6522481064454269 0.4514412096356679
-0.13460730884143685 -0.5231488437900893 0.22534981120656994
1.3248264855249465 -0.5761858615210969 -1.0680883595327302
1.4278370234928068 -0.6844485489701739 -1.1094170925809266
0.943492133659466 -0.2777437715506679 -0.8727112750260524
-0.054985993913421294 1.0195516197005148 0.3020135014505563
0.19118367460529573 1.0337539646786738 0.3822388485099424
0.7925237717742293 -0.42448023812598024 0.3154587631347816
0.4162966881364919 -0.874474738261803 1.1574719535324576
1.5720141348019154 -0.4661756344052037 -0.9860221985926145
0.16609730010563523 -0.7780943048390725 0.8009522038571077
1.1420067443855757 -0.47027422252062934 -0.8959953300783781
1.4662419176747346 -0.3701673094815021 -0.7680682597377988
0.10711300334635127 1.297061449916285 0.6820801014372968
-0.04473818372894056 1.1782238264252882 0.1888755865427889
1.040271976408058 -0.4633203767554974 0.013385132522724774
1.2389997603646346 -0.29748897866622315 -0.25996421967657213
0.3670120244244483 1.4144078432439784 0.7611954310828253
0.7167592724497178 0.4322831936713385 -0.4336310572199089
0.5554947943135069 1.3256035403241668 0.49489445735475
-0.4337029223055272 0.9106475191906114 -0.19192465935390857
1.105703446046015 -0.3744249878490251 -0.9783573540514858
1.1544163439833375 -0.45773590216247584 -0.9874619175073143
-0.16850251090285284 1.383825097928849 0.24524275557221387
-0.29136791931956985 -0.4019345383255484 -0.3628137130936473
0.6523759646908434 -0.7399687110661901 0.8234125891971331
0.8750490731450884 -0.13845563064469246 -0.8701785444226005
0.04814391286754671 -0.7009568434909994 0.6758252606035384
-0.025323884563871857 -0.729412608107701 0.520796917317238
0.7466374584365383 0.2105193268693668 -0.6469454530235943
-0.03925796996891956 -0.7322769247908312 0.8839572071706172
1.026398663042464 -0.5424422152190473 -0.8785796891222759
-0.16790276638971108 1.3945453790585987 0.5242933109538299
0.8748690347804038 -0.7855758104443993 0.46829736757373297
1.4192233684972333 -0.6617115880951303 -0.9570955760981796
1.3254503161170275 -0.5770738315783177 -0.2385189631925222
0.4866889653994363 -1.069667926639653 1.308725456848304
-0.23972282424636826 0.36408754056372317 -0.48505166107828757
0.18151311165724193 -1.1476066376677636 0.10891063124172007
1.427787368405286 -0.675827386932788 -0.45988737537691904
0.23954783510119204 -1.2123114176158936 1.3727662456028966
0.5614319415913718 -0.062092516054683244 -0.7817415883749526
0.34395480102933557 1.4400140612422732 0.6914050365443103
0.048902853161063464 1.5528248791293109 0.788371356740651
0.02158339691946698 0.4000133442640603 -0.6047222495094324
-0.2677317989373534 1.157151772023525 -0.19859543856105688
0.07047786182369131 -0.8729444772433865 1.2909091196844855
0.4543313148974357 0.16007251307392067 -0.7380957490591804
-0.3478641921167671 -0.11280643110423227 -0.4836613798734959
-0.1761944830298635 1.646454640064725 0.1823170892393371
0.45779877102583305 1.1147007681819758 0.15964571303277353
1.1116112693081184 -0.7672383903602267 -0.9366938415396326
1.0326194784050633 -0.9470884422468018 0.18419439297847262
1.1647942060288667 -0.9501846105957199 -0.004625468175369463
0.08986680634095662 -0.9570887143397826 -0.17811484925255527
0.486556959657369 0.48124481083225845 -0.6497634011162887
-0.20138429580223816 1.7912473568460072 0.4922525780656102
0.698406752251187 -0.4214204770309067 -0.9140682160998956
0.21341867887334576 -0.2484147873338074 -1.1553145006831151
0.11223568548495638 1.697298268323813 0.6720219626198336
0.7560845151706059 -0.9637239947211853 0.9234762682942126
1.4132704182534974 -0.8377541923059724 -0.7502587136452981
0.22814931690602996 -1.1823530524986836 1.3016060575130943
-0.06854430069941042 -0.22791844139382533 -0.6049114269927571
-0.2927234164743859 -0.46938330911650894 -0.368424785544903
0.4872944635543095 -0.387964811413525 -1.2661318312506502
0.024647687380173144 1.8006687005628024 0.16474805272562776
0.20222784148222572 1.1451357114528662 -0.38220519598242575
-0.030479671573341582 -0.0024125709456868094 -0.8756586372629904
-0.2614971558573898 -0.40409989813484515 -0.35407330016949246
0.09514442820970231 -1.0329787509315977 0.7416675805727451
0.17767466608793603 -1.2089982564547768 0.44118958042332324
-0.15355420744745585 -0.4453286209160012 -0.34057611244546493
0.04243439506780283 -0.94468346227643 1.094417702768066
1.0148972851693483 -0.9348478777777629 0.45295900757516705
1.0025873435223265 -0.8563340932874368 -0.8875699819267311
0.5043522253878736 -1.1378169183069318 1.4152754540738428
0.29808132427393386 -1.251039918557069 1.6337322290389054
1.1235589541510025 -1.2425638763593412 -0.006095802179316934
1.2410103299581758 -1.1270872448669564 -0.38563138813343656
0.18138072146502615 -1.2026619247341586 0.8045918466495223
0.13470843079259914 -0.9533950248878469 -0.18660463939938765
0.20770307377580915 -1.1453808925554796 1.339848703827034
1.0361309536200438 -1.4186188891892542 -0.3754841537552629
1.0007504798055216 -1.7623590311278932 -0.1271073964317253
0.9942585356717152 -1.5614207259911268 -0.08373063341814557
-0.07917580850522449 -0.8407699433848919 0.14736080633220894
0.5779641357205363 -0.9333259581722615 -0.5930215130086722
0.5954727825284529 -1.4826835536523788 0.10334987721566335
0.4795891308454405 -1.4571025825238308 0.3109132408518924
0.3842940912710855 -1.0855376123262133 -0.248241676426332
0.26816656133234734 -0.4958041602322325 -0.841839047187495
1.043970783133966 -1.2477626377102453 0.26426560555976053
0.20141223272220016 -1.225894853434653 1.1354069423062079
-0.03712925998657429 -1.402355692121759 0.7045736467038388
0.680128201319162 -1.5729686448390083 0.6117255658178564
0.2746610976727568 -1.4517928888719354 1.9212645754578084
0.22424438937089175 -1.4819313090174546 1.8184560151004305
0.8205932225852284 -1.2188424459305267 0.951359560293934
0.6225373476106635 -1.236449238887289 1.3583810814991466
0.37938517232164926 -0.9926229611598956 -0.19145346551815123
0.3357835902142001 -1.4425579594975773 0.903556238707715
0.4925634654192717 -1.537608081081558 0.5709760562719737
0.4400990959120386 -1.3227746900241186 1.5736188730461897
0.6251385312805052 -1.707618071940331 1.0780838365032999
0.15317975890804492 -0.6416602076956366 -0.47212229827681895
0.13284539809845458 -0.9456232745830704 0.20612948549061372
0.27329607679170426 -1.5867556664805065 0.6534981411040057
0.20899960894294234 -1.4649075881992673 1.2739686975266054
0.141255893404252 -1.6450155030784899 0.7779402254045387
0.3594331179918687 -1.783256684704277 1.2181793008002941
0.5624476292565258 -1.472662228373025 1.4162783687874416
0.372698064713962 -1.5323483326923366 1.6949100976670195
0.22888196389535603 -1.6319946430141172 1.547962089498455
0.4059493268819481 -1.6057314340229567 1.5867857873655211
0.22916968271533655 -1.4731312723468903 2.005315875889348
0.2159912704404896 -1.5556939734236295 1.894395786217462
0.25659275626903855 -1.5092389849390244 1.889001634291926