<?xml version="1.0"?>
<VTKFile type="UnstructuredGrid"  version="0.1"  >
<UnstructuredGrid>
<Piece  NumberOfPoints="7142" NumberOfCells="34298">
<Points>
<DataArray  type="Float64"  NumberOfComponents="3"  format="ascii">-1 -1 1  -1 -1 -1  -1 1 1  -1 1 -1  1 -1 -1  1 -1 1  1 1 1  1 1 -1  4.592425496802574e-17 -7.498798913309288e-33 0.25  4.592425496802574e-17 -7.498798913309288e-33 -0.25  -1 -1 -0.9  -1 -1 -0.8  -1 -1 -0.7  -1 -1 -0.6  -1 -1 -0.5  -1 -1 -0.4  -1 -1 -0.3  -1 -1 -0.2  -1 -1 -0.09999999999999998  -1 -1 0  -1 -1 0.1000000000000001  -1 -1 0.2  -1 -1 0.3  -1 -1 0.3999999999999999  -1 -1 0.5  -1 -1 0.6000000000000001  -1 -1 0.7  -1 -1 0.8  -1 -1 0.8999999999999999  -1 -0.9 1  -1 -0.8 1  -1 -0.7 1  -1 -0.6 1  -1 -0.5 1  -1 -0.4 1  -1 -0.3 1  -1 -0.2 1  -1 -0.09999999999999998 1  -1 0 1  -1 0.1000000000000001 1  -1 0.2 1  -1 0.3 1  -1 0.3999999999999999 1  -1 0.5 1  -1 0.6000000000000001 1  -1 0.7 1  -1 0.8 1  -1 0.8999999999999999 1  -1 1 -0.9  -1 1 -0.8  -1 1 -0.7  -1 1 -0.6  -1 1 -0.5  -1 1 -0.4  -1 1 -0.3  -1 1 -0.2  -1 1 -0.09999999999999998  -1 1 0  -1 1 0.1000000000000001  -1 1 0.2  -1 1 0.3  -1 1 0.3999999999999999  -1 1 0.5  -1 1 0.6000000000000001  -1 1 0.7  -1 1 0.8  -1 1 0.8999999999999999  -1 -0.9 -1  -1 -0.8 -1  -1 -0.7 -1  -1 -0.6 -1  -1 -0.5 -1  -1 -0.4 -1  -1 -0.3 -1  -1 -0.2 -1  -1 -0.09999999999999998 -1  -1 0 -1  -1 0.1000000000000001 -1  -1 0.2 -1  -1 0.3 -1  -1 0.3999999999999999 -1  -1 0.5 -1  -1 0.6000000000000001 -1  -1 0.7 -1  -1 0.8 -1  -1 0.8999999999999999 -1  -0.9 -1 -1  -0.8 -1 -1  -0.7 -1 -1  -0.6 -1 -1  -0.5 -1 -1  -0.4 -1 -1  -0.3 -1 -1  -0.2 -1 -1  -0.09999999999999998 -1 -1  0 -1 -1  0.1000000000000001 -1 -1  0.2 -1 -1  0.3 -1 -1  0.3999999999999999 -1 -1  0.5 -1 -1  0.6000000000000001 -1 -1  0.7 -1 -1  0.8 -1 -1  0.8999999999999999 -1 -1  1 -1 -0.9  1 -1 -0.8  1 -1 -0.7  1 -1 -0.6  1 -1 -0.5  1 -1 -0.4  1 -1 -0.3  1 -1 -0.2  1 -1 -0.09999999999999998  1 -1 0  1 -1 0.1000000000000001  1 -1 0.2  1 -1 0.3  1 -1 0.3999999999999999  1 -1 0.5  1 -1 0.6000000000000001  1 -1 0.7  1 -1 0.8  1 -1 0.8999999999999999  -0.9 -1 1  -0.8 -1 1  -0.7 -1 1  -0.6 -1 1  -0.5 -1 1  -0.4 -1 1  -0.3 -1 1  -0.2 -1 1  -0.09999999999999998 -1 1  0 -1 1  0.1000000000000001 -1 1  0.2 -1 1  0.3 -1 1  0.3999999999999999 -1 1  0.5 -1 1  0.6000000000000001 -1 1  0.7 -1 1  0.8 -1 1  0.8999999999999999 -1 1  -0.9 1 1  -0.8 1 1  -0.7 1 1  -0.6 1 1  -0.5 1 1  -0.4 1 1  -0.3 1 1  -0.2 1 1  -0.09999999999999998 1 1  0 1 1  0.1000000000000001 1 1  0.2 1 1  0.3 1 1  0.3999999999999999 1 1  0.5 1 1  0.6000000000000001 1 1  0.7 1 1  0.8 1 1  0.8999999999999999 1 1  1 -0.9 1  1 -0.8 1  1 -0.7 1  1 -0.6 1  1 -0.5 1  1 -0.4 1  1 -0.3 1  1 -0.2 1  1 -0.09999999999999998 1  1 0 1  1 0.1000000000000001 1  1 0.2 1  1 0.3 1  1 0.3999999999999999 1  1 0.5 1  1 0.6000000000000001 1  1 0.7 1  1 0.8 1  1 0.8999999999999999 1  -0.9 1 -1  -0.8 1 -1  -0.7 1 -1  -0.6 1 -1  -0.5 1 -1  -0.4 1 -1  -0.3 1 -1  -0.2 1 -1  -0.09999999999999998 1 -1  0 1 -1  0.1000000000000001 1 -1  0.2 1 -1  0.3 1 -1  0.3999999999999999 1 -1  0.5 1 -1  0.6000000000000001 1 -1  0.7 1 -1  0.8 1 -1  0.8999999999999999 1 -1  1 1 -0.9  1 1 -0.8  1 1 -0.7  1 1 -0.6  1 1 -0.5  1 1 -0.4  1 1 -0.3  1 1 -0.2  1 1 -0.09999999999999998  1 1 0  1 1 0.1000000000000001  1 1 0.2  1 1 0.3  1 1 0.3999999999999999  1 1 0.5  1 1 0.6000000000000001  1 1 0.7  1 1 0.8  1 1 0.8999999999999999  1 -0.9 -1  1 -0.8 -1  1 -0.7 -1  1 -0.6 -1  1 -0.5 -1  1 -0.4 -1  1 -0.3 -1  1 -0.2 -1  1 -0.09999999999999998 -1  1 0 -1  1 0.1000000000000001 -1  1 0.2 -1  1 0.3 -1  1 0.3999999999999999 -1  1 0.5 -1  1 0.6000000000000001 -1  1 0.7 -1  1 0.8 -1  1 0.8999999999999999 -1  0.09823974369183598 -1.604119835483511e-17 -0.2478460437806239  0.1962831407444755 -3.205033600524151e-17 -0.2412865812586731  0.2938942070592527 -4.79888799950751e-17 -0.2300063272214274  0.3907360959584134 -6.38018278969072e-17 -0.2133919980055427  0.4862416583927641 -7.93965720750399e-17 -0.1903415204437231  0.5792628385701935 -9.458565081599964e-17 -0.1587991617146927  0.6667950704867349 -1.088784598345085e-16 -0.1144476270200043  0.7367747947247408 -1.203051858736136e-16 -0.04674148984731071  0.7367747947247409 -1.203051858736136e-16 0.04674148984731014  0.6667950704867339 -1.088784598345083e-16 0.114447627020005  0.5792628385701915 -9.458565081599933e-17 0.1587991617146935  0.4862416583927622 -7.939657207503959e-17 0.1903415204437237  0.3907360959584119 -6.380182789690696e-17 0.2133919980055429  0.2938942070592512 -4.798887999507485e-17 0.2300063272214276  0.196283140744474 -3.205033600524125e-17 0.2412865812586732  0.09823974369183504 -1.604119835483496e-17 0.2478460437806239  -1 0.9090164283483211 -0.04609832499376254  -1 -0.9162462674736055 0.0450657200592488  -1 0.04999999999999938 0.9133974596215579  -1 -0.0459956426705026 -0.9161797248089112  -1 0.9133974596215562 0.3500000000000001  -1 0.3456710239961631 -0.9101989626953775  -1 -0.9049182216335183 -0.3654119760698045  -1 -0.3500000000000003 0.9133974596215568  -1 -0.9206080548995333 0.3522781889976123  -1 0.3500000000000001 0.9133974596215562  -1 -0.3543289760038362 -0.9101989626953768  -1 0.9049182216335128 -0.3654119760698062  -1 0.9203396983313532 -0.6558475493514314  -1 0.6499999999999995 0.9133974596215562  -1 -0.6459956426705025 -0.916179724808911  -1 -0.9110869954749627 0.6513101536123622  -1 -0.65 0.9133974596215562  -1 0.9033150115366988 0.6595206051192377  -1 0.6499999999999995 -0.9133974596215563  -1 -0.9203396983313562 -0.65584754935143  -1 0.1499999999999999 -0.9138678080267945  -1 0.9046470838356169 0.1419625727508906  -1 -0.9070581902576713 -0.1531542307837518  -1 -0.1500000000000007 0.9133974596215568  -1 0.8461324865405182 0.9156303695584818  -1 0.8560557292563375 -0.9171007313676516  -1 -0.9151836000057839 -0.8501628634640208  -1 -0.909430275255922 0.8408174380942608  -1 0.7493554144234189 0.9137696112777101  -1 0.699892569070568 0.8268569445191378  -1 0.5999820948450938 0.8268052567891169  -1 0.6499791106526083 0.7402044393350069  -1 0.5499935342496158 0.7401961118673932  -1 0.5993384547763156 0.6539717817991986  -1 0.4998886648376537 0.6536541178721755  -1 0.5492142005616061 0.5674409796250655  -1 0.4498504775665417 0.5670736249249875  -1 0.4998441130213565 0.4804747591184197  -1 0.3999490984313145 0.4804141457637194  -1 0.4499655352421099 0.3938021155881382  -1 0.3499857722789017 0.3937904317294989  -1 0.3999918845868322 0.3071843624084256  -1 0.2999962761442865 0.3071818269415476  -1 0.3499980267885168 0.2205782758281858  -1 0.2499990504887974 0.2205776847945538  -1 0.2999995128795492 0.1339748774546845  -1 0.1999997605613881 0.1339747344555087  -1 0.2499998789068194 0.04737212575029748  -1 0.1499999399113647 0.04737209052930735  -1 0.09999995007878892 0.1339746250375864  -1 0.04999998166502251 0.0473720664228221  -1 -1.137603433676304e-08 0.1339746027835185  -1 -0.05000000495183832 0.04737205869606376  -1 0.09999998692939438 -0.03923047699500826  -1 -0.1000000027213146 0.1339745977867146  -1 -0.150000001278862 0.04737205657547028  -1 -0.2000000006666984 0.1339745966004822  -1 -0.2500000003242632 0.04737205602433336  -1 -0.2000000002671912 -0.03923048438706167  -1 -0.05000000234956037 0.2205771379505261  -1 -0.300000000165163 0.1339745963109213  -1 -0.3000000000985792 -0.03923048448440891  -1 -0.2500000000609658 -0.1258330248845696  -1 -0.3500000000265946 -0.1258330249044132  -1 -0.3000000000145978 -0.212435565289784  -1 0.349999898631058 0.04737211436250233  -1 0.2999891451183678 0.4803910247981715  -1 -0.4000000000068695 -0.2124355652942452  -1 -0.3500000000035823 -0.2990381056745874  -1 -0.2500000000030347 -0.2990381056749045  -1 -0.3000000000002933 -0.3856406460549306  -1 -0.2000000000005593 -0.3856406460547775  -1 -0.4000000000006504 -0.3856406460547239  -1 -0.4500000000055808 -0.1258330249165448  -1 -0.2500000000001469 -0.4722431864334593  -1 -0.1500000000001225 -0.4722431864334737  -1 0.499992903304822 0.3071837742513202  -1 -0.500000000002079 -0.2124355652970102  -1 -0.2500000001386459 0.220577136674055  -1 -0.3500000000131839 0.22057713660162  -1 -0.3000000000253074 0.3071796769870632  -1 -0.4000000000064172 0.3071796769761574  -1 -0.3500000000052899 0.3937822173539502  -1 -0.4500000000005109 0.3937822173511911  -1 -0.4500000000032699 0.2205771365958971  -1 -0.2500000000051017 0.3937822173538414  -1 0.2999999903485424 -0.0392304789690554  -1 0.3999999814965964 -0.03923047385838241  -1 0.3499999953075195 -0.1258330222105659  -1 0.4499999961340158 -0.125833022687744  -1 0.3999999996286885 -0.2124355650838379  -1 0.4999999962717654 -0.03923048238883042  -1 0.4999999992937805 -0.2124355648904789  -1 0.4499999998204072 -0.2990381055729709  -1 0.349999999908178 -0.2990381056236451  -1 0.3999999999547588 -0.3856406460289834  -1 0.2999999999771512 -0.3856406460419106  -1 0.4999999999625229 -0.3856406460334667  -1 0.4499999999964037 -0.4722431864314718  -1 -0.1000000000001181 -0.3856406460550323  -1 -0.05000000000004501 -0.4722431864335188  -1 -0.4000000000009694 0.4803847577298996  -1 -0.5000000000002491 0.4803847577294835  -1 0.5499999999931489 -0.4722431864295937  -1 -0.2000000000000184 -0.5588457268119775  -1 -0.3000000000000326 -0.5588457268119691  -1 0.4999999999982521 -0.5588457268109837  -1 0.3999999999991029 -0.5588457268114742  -1 -0.5500000000012801 -0.1258330249190269  -1 -0.5500000000001288 0.3937822173509717  -1 -0.4500000000002058 0.5669872981079023  -1 -0.3500000000001977 0.5669872981078985  -1 -0.5500000000000231 0.5669872981077966  -1 -0.6000000000005639 -0.2124355652978844  -1 0.5975514627005496 0.4799109438307625  -1 0.5999999999985604 -0.5588457268111635  -1 0.5999999999926087 -0.385640646050836  -1 -3.197442310920451e-14 -0.3856406460550823  -1 0.1999992211055119 0.3071801266673932  -1 0.04999999999998228 -0.4722431864335348  -1 -1.554312234475219e-14 -0.5588457268119801  -1 -0.05000000000002958 -0.2990381056766398  -1 0.09999999999998921 -0.5588457268119835  -1 0.2499999999808842 -0.2990381056656208  -1 0.
[...]
<PointData  Vectors="f_17"> 
<DataArray  type="Float64"  Name="f_17"  NumberOfComponents="3" format="ascii">0.0000000000000000e+00 0.0000000000000000e+00 0.0000000000000000e+00  0.0000000000000000e+00 0.0000000000000000e+00 0.0000000000000000e+00  0.0000000000000000e+00 0.0000000000000000e+00 0.0000000000000000e+00  0.0000000000000000e+00 0.0000000000000000e+00 0.0000000000000000e+00  0.0000000000000000e+00 0.0000000000000000e+00 0.0000000000000000e+00  0.0000000000000000e+00 0.0000000000000000e+00 0.0000000000000000e+00  0.0000000000000000e+00 0.0000000000000000e+00 0.0000000000000000e+00  0.0000000000000000e+00 0.0000000000000000e+00 0.0000000000000000e+00  -2.2962127484012871e-17 0.0000000000000000e+00 0.0000000000000000e+00  -2.2962127484012871e-17 0.0000000000000000e+00 0.0000000000000000e+00  0.0000000000000000e+00 0.0000000000000000e+00 0.0000000000000000e+00  0.0000000000000000e+00 0.0000000000000000e+00 0.0000000000000000e+00  0.0000000000000000e+00 0.0000000000000000e+00 0.0000000000000000e+00  0.0000000000000000e+00 0.0000000000000000e+00 0.0000000000000000e+00  0.0000000000000000e+00 0.0000000000000000e+00 0.0000000000000000e+00  0.0000000000000000e+00 0.0000000000000000e+00 0.0000000000000000e+00  0.0000000000000000e+00 0.0000000000000000e+00 0.0000000000000000e+00  0.0000000000000000e+00 0.0000000000000000e+00 0.0000000000000000e+00  0.0000000000000000e+00 0.0000000000000000e+00 0.0000000000000000e+00  0.0000000000000000e+00 0.0000000000000000e+00 0.0000000000000000e+00  0.0000000000000000e+00 0.0000000000000000e+00 0.0000000000000000e+00  0.0000000000000000e+00 0.0000000000000000e+00 0.0000000000000000e+00  0.0000000000000000e+00 0.0000000000000000e+00 0.0000000000000000e+00  0.0000000000000000e+00 0.0000000000000000e+00 0.0000000000000000e+00  0.0000000000000000e+00 0.0000000000000000e+00 0.0000000000000000e+00  0.0000000000000000e+00 0.0000000000000000e+00 0.0000000000000000e+00  0.0000000000000000e+00 0.0000000000000000e+00 0.0000000000000000e+00  0.0000000000000000e+00 0.0000000000000000e+00 0.0000000000000000e+00  0.0000000000000000e+00 0.0000000000000000e+00 0.0000000000000000e+00  0.0000000000000000e+00 0.0000000000000000e+00 0.0000000000000000e+00  0.0000000000000000e+00 0.0000000000000000e+00 0.0000000000000000e+00  0.0000000000000000e+00 0.0000000000000000e+00 0.0000000000000000e+00  0.0000000000000000e+00 0.0000000000000000e+00 0.0000000000000000e+00  0.0000000000000000e+00 0.0000000000000000e+00 0.0000000000000000e+00  0.0000000000000000e+00 0.0000000000000000e+00 0.0000000000000000e+00  0.0000000000000000e+00 0.0000000000000000e+00 0.0000000000000000e+00  0.0000000000000000e+00 0.0000000000000000e+00 0.0000000000000000e+00  0.0000000000000000e+00 0.0000000000000000e+00 0.0000000000000000e+00  0.0000000000000000e+00 0.0000000000000000e+00 0.0000000000000000e+00  0.0000000000000000e+00 0.0000000000000000e+00 0.0000000000000000e+00  0.0000000000000000e+00 0.0000000000000000e+00 0.0000000000000000e+00  0.0000000000000000e+00 0.0000000000000000e+00 0.0000000000000000e+00  0.0000000000000000e+00 0.0000000000000000e+00 0.0000000000000000e+00  0.0000000000000000e+00 0.0000000000000000e+00 0.0000000000000000e+00  0.0000000000000000e+00 0.0000000000000000e+00 0.0000000000000000e+00  0.0000000000000000e+00 0.0000000000000000e+00 0.0000000000000000e+00  0.0000000000000000e+00 0.0000000000000000e+00 0.0000000000000000e+00  0.0000000000000000e+00 0.0000000000000000e+00 0.0000000000000000e+00  0.0000000000000000e+00 0.0000000000000000e+00 0.0000000000000000e+00  0.0000000000000000e+00 0.0000000000000000e+00 0.0000000000000000e+00  0.0000000000000000e+00 0.0000000000000000e+00 0.0000000000000000e+00  0.0000000000000000e+00 0.0000000000000000e+00 0.0000000000000000e+00  0.0000000000000000e+00 0.0000000000000000e+00 0.0000000000000000e+00  0.0000000000000000e+00 0.0000000000000000e+00 0.0000000000000000e+00  0.0000000000000000e+00 0.0000000000000000e+00 0.0000000000000000e+00  0.0000000000000000e+00 0.0000000000000000e+00 0.0000000000000000e+00  0.0000000000000000e+00 0.0000000000000000e+00 0.0000000000000000e+00  0.0000000000000000e+00 0.0000000000000000e+00 0.0000000000000000e+00  0.0000000000000000e+00 0.0000000000000000e+00 0.0000000000000000e+00  0.0000000000000000e+00 0.0000000000000000e+00 0.0000000000000000e+00  0.0000000000000000e+00 0.0000000000000000e+00 0.0000000000000000e+00  0.0000000000000000e+00 0.0000000000000000e+00 0.0000000000000000e+00  0.0000000000000000e+00 0.0000000000000000e+00 0.0000000000000000e+00  0.0000000000000000e+00 0.0000000000000000e+00 0.0000000000000000e+00  0.0000000000000000e+00 0.0000000000000000e+00 0.0000000000000000e+00  0.0000000000000000e+00 0.0000000000000000e+00 0.0000000000000000e+00  0.0000000000000000e+00 0.0000000000000000e+00 0.0000000000000000e+00  0.0000000000000000e+00 0.0000000000000000e+00 0.0000000000000000e+00  0.0000000000000000e+00 0.0000000000000000e+00 0.0000000000000000e+00  0.0000000000000000e+00 0.0000000000000000e+00 0.0000000000000000e+00  0.0000000000000000e+00 0.0000000000000000e+00 0.0000000000000000e+00  0.0000000000000000e+00 0.0000000000000000e+00 0.0000000000000000e+00  0.0000000000000000e+00 0.0000000000000000e+00 0.0000000000000000e+00  0.0000000000000000e+00 0.0000000000000000e+00 0.0000000000000000e+00  0.0000000000000000e+00 0.0000000000000000e+00 0.0000000000000000e+00  0.0000000000000000e+00 0.0000000000000000e+00 0.0000000000000000e+00  0.0000000000000000e+00 0.0000000000000000e+00 0.0000000000000000e+00  0.0000000000000000e+00 0.0000000000000000e+00 0.0000000000000000e+00  0.0000000000000000e+00 0.0000000000000000e+00 0.0000000000000000e+00  0.0000000000000000e+00 0.0000000000000000e+00 0.0000000000000000e+00  0.0000000000000000e+00 0.0000000000000000e+00 0.0000000000000000e+00  0.0000000000000000e+00 0.0000000000000000e+00 0.0000000000000000e+00  0.0000000000000000e+00 0.0000000000000000e+00 0.0000000000000000e+00  0.0000000000000000e+00 0.0000000000000000e+00 0.0000000000000000e+00  0.0000000000000000e+00 0.0000000000000000e+00 0.0000000000000000e+00  0.0000000000000000e+00 0.0000000000000000e+00 0.0000000000000000e+00  0.0000000000000000e+00 0.0000000000000000e+00 0.0000000000000000e+00  0.0000000000000000e+00 0.0000000000000000e+00 0.0000000000000000e+00  0.0000000000000000e+00 0.0000000000000000e+00 0.0000000000000000e+00  0.0000000000000000e+00 0.0000000000000000e+00 0.0000000000000000e+00  0.0000000000000000e+00 0.0000000000000000e+00 0.0000000000000000e+00  0.0000000000000000e+00 0.0000000000000000e+00 0.0000000000000000e+00  0.0000000000000000e+00 0.0000000000000000e+00 0.0000000000000000e+00  0.0000000000000000e+00 0.0000000000000000e+00 0.0000000000000000e+00  0.0000000000000000e+00 0.0000000000000000e+00 0.0000000000000000e+00  0.0000000000000000e+00 0.0000000000000000e+00 0.0000000000000000e+00  0.0000000000000000e+00 0.0000000000000000e+00 0.0000000000000000e+00  0.0000000000000000e+00 0.0000000000000000e+00 0.0000000000000000e+00  0.0000000000000000e+00 0.0000000000000000e+00 0.0000000000000000e+00  0.0000000000000000e+00 0.0000000000000000e+00 0.0000000000000000e+00  0.0000000000000000e+00 0.0000000000000000e+00 0.0000000000000000e+00  0.0000000000000000e+00 0.0000000000000000e+00 0.0000000000000000e+00  0.0000000000000000e+00 0.0000000000000000e+00 0.0000000000000000e+00  0.0000000000000000e+00 0.0000000000000000e+00 0.0000000000000000e+00  0.0000000000000000e+00 0.0000000000000000e+00 0.0000000000000000e+00  0.0000000000000000e+00 0.0000000000000000e+00 0.0000000000000000e+00  0.0000000000000000e+00 0.0000000000000000e+00 0.0000000000000000e+00  0.0000000000000000e+00 0.0000000000000000e+00 0.0000000000000000e+00  0.0000000000000000e+00 0.0000000000000000e+00 0.0000000000000000e+00  0.0000000000000000e+00 0.0000000000000000e+00 0.0000000000000000e+00  0.0000000000000000e+00 0.0000000000000000e+00 0.0000000000000000e+00  0.0000000000000000e+00 0.0000000000000000e+00 0.0000000000000000e+00  0.0000000000000000e+00 0.0000000000000000e+00 0.0000000000000000e+00  0.0000000000000000e+00 0.0000000000000000e+00 0.0000000000000000e+00  0.0000000000000000e+00 0.0000000000000000e+00 0.0000000000000000e+00  0.0000000000000000e+00 0.0000000000000000e+00 0.0000000000000000e+00  0.0000000000000000e+00 0.0000000000000000e+00 0.0000000000000000e+00  0.0000000000000000e+00 0.0000000000000000e+00 0.0000000000000000e+00  0.0000000000000000e+00 0.0000000000000000e+00 0.0000000000000000e+00  0.0000000000000000e+00 0.0000000000000000e+00 0.0000000000000000e+00  0.0000000000000000e+00 0.0000000000000000e+00 0.0000000000000000e+00  0.0000000000000000e+00 0.0000000000000000e+00 0.0000000000000000e+00  0.0000000000000000e+00 0.0000000000000000e+00 0.0000000000000000e+00  0.0000000000000000e+00 0.0000000000000000e+00 0.0000000000000000e+00  0.0000000000000000e+00 0.0000000000000000e+00 0.0000000000000000e+00  0.0000000000000000e+00 0.0000000000000000e+00 0.0000000000000000e+00  0.0000000000000000e+00 0.0000000000000000e+00 0.0000000000000000e+00  0.0000000000000000e+00 0.0000000000000000e+00 0.0000000000000000e+00  0.0000000000000000e+00 0.0000000000000000e+00 0.0000000000000000e+00  0.0000000000000000e+00 0.0000000000000000e+00 0.0000000000000000e+00  0.0000000000000000e+00 0.0000000000000000e+00 0.0000000000000000e+00  0.0000000000000000e+00 0.0000000000000000e+00 0.0000000000000000e+00  0.0000000000000000e+00 0.0000000000000000e+00 0.0000000000000000e+00  0.0000000000000000e+00 0.0000000000000000e+00 0.0000000000000000e+00  0.0000000000000000e+00 0.0000000000000000e+00 0.0000000000000000e+00  0.0000000000000000e+00 0.0000000000000000e+00 0.0000000000000000e+00  0.0000000000000000e+00 0.0000000000000000e+00 0.0000000000000000e+00  0.0000000000000000e+00 0.0000000000000000e+00 0.0000000000000000e+00  0.0000000000000000e+00 0.0000000000000000e+00 0.0000000000000000e+00  0.0000000000000000e+00 0.0000000000000000e+00 0.0000000000000000e+00  0.0000000000000000e+00 0.0000000000000000e+00 0.0000000000000000e+00  0.0000000000000000e+00 0.0000000000000000e+00 0.0000000000000000e+00  0.0000000000000000e+00 0.0000000000000000e+00 0.0000000000000000e+00  0.0000000000000000e+00 0.0000000000000000e+00 0.0000000000000000e+00  0.0000000000000000e+00 0.0000000000000000e+00 0.0000000000000000e+00  0.0000000000000000e+00 0.0000000000000000e+00 0.0000000000000000e+00  0.0000000000000000e+00 0.0000000000000000e+00 0.0000000000000000e+00  0.0000000000000000e+00 0.0000000000000000e+00 0.0000000000000000e+00  0.0000000000000000e+00 0.0000000000000000e+00 0.0000000000000000e+00  0.0000000000000000e+00 0.0000000000000000e+00 0.0000000000000000e+00  0.0000000000000000e+00 0.0000000000000000e+00 0.0000000000000000e+00  0.0000000000000000e+00 0.0000000000000000e+00 0.0000000000000000e+00  0.0000000000000000e+00 0.0000000000000000e+00 0.0000000000000000e+00  0.0000000000000000e+00 0.0000000000000000e+00 0.0000000000000000e+00  0.0000000000000000e+00 0.0000000000000000e+00 0.0000000000000000e+00  0.0000000000000000e+00 0.0000000000000000e+00 0.0000000000000000e+00  0.0000000000000000e+00 0.0000000000000000e+00 0.0000000000000000e+00  0.0000000000000000e+00 0.0000000000000000e+00 0.0000000000000000e+00  0.0000000000000000e+00 0.0000000000000000e+00 0.0000000000000000e+00  0.0000000000000000e+00 0.0000000000000000e+00 0.0000000000000000e+00  0.0000000000000000e+00 0.0000000000000000e+00 0.0000000000000000e+00  0.0000000000000000e+00 0.0000000000000000e+00 0.0000000000000000e+00  0.0000000000000000e+00 0.0000000000000000e+00 0.0000000000000000e+00  0.0000000000000000e+00 0.0000000000000000e+00 0.0000000000000000e+00  0.0000000000000000e+00 0.0000000000000000e+00 0.0000000000000000e+00  0.0000000000000000e+00 0.0000000000000000e+00 0.0000000000000000e+00  0.0000000000000000e+00 0.0000000000000000e+00 0.0000000000000000e+00  0.0000000000000000e+00 0.0000000000000000e+00 0.0000000000000000e+00  0.0000000000000000e+00 0.0000000000000000e+00 0.0000000000000000e+00  0.0000000000000000e+00 0.0000000000000000e+00 0.0000000000000000e+00  0.0000000000000000e+00 0.0000000000000000e+00 0.0000000000000000e+00  0.0000000000000000e+00 0.0000000000000000e+00 0.0000000000000000e+00  0.0000000000000000e+00 0.0000000000000000e+00 0.0000000000000000e+00  0.0000000000000000e+00 0.0000000000000000e+00 0.0000000000000000e+00  0.0000000000000000e+00 0.0000000000000000e+00 0.0000000000000000e+00  0.0000000000000000e+00 0.0000000000000000e+00 0.0000000000000000e+00  0.0000000000000000e+00 0.0000000000000000e+00 0.0000000000000000e+00  0.0000000000000000e+00 0.0000000000000000e+00 0.0000000000000000e+00  0.0000000000000000e+00 0.0000000000000000e+00 0.0000000000000000e+00  0.0000000000000000e+00 0.0000000000000000e+00 0.0000000000000000e+00  0.0000000000000000e+00 0.0000000000000000e+00 0.0000000000000000e+00  0.0000000000000000e+00 0.0000000000000000e+00 0.0000000000000000e+00  0.0000000000000000e+00 0.0000000000000000e+00 0.0000000000000000e+00  0.0000000000000000e+00 0.0000000000000000e+00 0.0000000000000000e+00  0.0000000000000000e+00 0.0000000000000000e+00 0.0000000000000000e+00  0.0000000000000000e+00 0.0000000000000000e+00 0.0000000000000000e+00  0.0000000000000000e+00 0.0000000000000000e+00 0.0000000000000000e+00  0.0000000000000000e+00 0.0000000000000000e+00 0.0000000000000000e+00  0.0000000000000000e+00 0.0000000000000000e+00 0.0000000000000000e+00  0.0000000000000000e+00 0.0000000000000000e+00 0.0000000000000000e+00  0.0000000000000000e+00 0.0000000000000000e+00 0.0000000000000000e+00  0.0000000000000000e+00 0.0000000000000000e+00 0.0000000000000000e+00  0.0000000000000000e+00 0.0000000000000000e+00 0.0000000000000000e+00  0.0000000000000000e+00 0.0000000000000000e+00 0.0000000000000000e+00  0.0000000000000000e+00 0.0000000000000000e+00 0.0000000000000000e+00  0.0000000000000000e+00 0.0000000000000000e+00 0.0000000000000000e+00  0.0000000000000000e+00 0.0000000000000000e+00 0.0000000000000000e+00  0.0000000000000000e+00 0.0000000000000000e+00 0.0000000000000000e+00  0.0000000000000000e+00 0.0000000000000000e+00 0.0000000000000000e+00  0.0000000000000000e+00 0.0000000000000000e+00 0.0000000000000000e+00  0.0000000000000000e+00 0.0000000000000000e+00 0.0000000000000000e+00  0.0000000000000000e+00 0.0000000000000000e+00 0.0000000000000000e+00  0.0000000000000000e+00 0.0000000000000000e+00 0.0000000000000000e+00  0.0000000000000000e+00 0.0000000000000000e+00 0.0000000000000000e+00  0.0000000000000000e+00 0.0000000000000000e+00 0.0000000000000000e+00  0.0000000000000000e+00 0.0000000000000000e+00 0.0000000000000000e+00  0.0000000000000000e+00 0.0000000000000000e+00 0.0000000000000000e+00  0.0000000000000000e+00 0.0000000000000000e+00 0.0000000000000000e+00  0.0000000000000000e+00 0.0000000000000000e+00 0.0000000000000000e+00  0.0000000000000000e+00 0.0000000000000000e+00 0.0000000000000000e+00  0.0000000000000000e+00 0.0000000000000000e+00 0.0000000000000000e+00  0.0000000000000000e+00 0.0000000000000000e+00 0.0000000000000000e+00  0.0000000000000000e+00 0.0000000000000000e+00 0.0000000000000000e+00  0.0000000000000000e+00 0.0000000000000000e+00 0.0000000000000000e+00  0.0000000000000000e+00 0.0000000000000000e+00 0.0000000000000000e+00  0.0000000000000000e+00 0.0000000000000000e+00 0.0000000000000000e+00  0.0000000000000000e+00 0.0000000000000000e+00 0.0000000000000000e+00  0.0000000000000000e+00 0.0000000000000000e+00 0.0000000000000000e+00  0.0000000000000000e+00 0.0000000000000000e+00 0.0000000000000000e+00  0.0000000000000000e+00 0.0000000000000000e+00 0.0000000000000000e+00  0.0000000000000000e+00 0.0000000000000000e+00 0.0000000000000000e+00  0.0000000000000000e+00 0.0000000000000000e+00 0.0000000000000000e+00  0.0000000000000000e+00 0.0000000000000000e+00 0.0000000000000000e+00  0.0000000000000000e+00 0.0000000000000000e+00 0.0000000000000000e+00  0.0000000000000000e+00 0.0000000000000000e+00 0.0000000000000000e+00  0.0000000000000000e+00 0.0000000000000000e+00 0.0000000000000000e+00  0.0000000000000000e+00 0.0000000000000000e+00 0.0000000000000000e+00  0.0000000000000000e+00 0.0000000000000000e+00 0.0000000000000000e+00  0.0000000000000000e+00 0.0000000000000000e+00 0.0000000000000000e+00  0.0000000000000000e+00 0.0000000000000000e+00 0.0000000000000000e+00  0.0000000000000000e+00 0.0000000000000000e+00 0.0000000000000000e+00  0.0000000000000000e+00 0.0000000000000000e+00 0.0000000000000000e+00  0.0000000000000000e+00 0.0000000000000000e+00 0.0000000000000000e+00  0.0000000000000000e+00 0.0000000000000000e+00 0.0000000000000000e+00  0.0000000000000000e+00 0.0000000000000000e+00 0.0000000000000000e+00  0.0000000000000000e+00 0.0000000000000000e+00 0.0000000000000000e+00  0.0000000000000000e+00 0.0000000000000000e+00 0.0000000000000000e+00  0.0000000000000000e+00 0.0000000000000000e+00 0.0000000000000000e+00  -4.9119871845917991e-02 0.0000000000000000e+00 0.0000000000000000e+00  -9.8141570372237752e-02 0.0000000000000000e+00 0.0000000000000000e+00  -1.4694710352962634e-01 0.0000000000000000e+00 0.0000000000000000e+00  -1.9536804797920670e-01 0.0000000000000000e+00 0.0000000000000000e+00  -2.4312082919638206e-01 0.0000000000000000e+00 0.0000000000000000e+00  -2.8963141928509673e-01 0.0000000000000000e+00 0.0000000000000000e+00  -3.3339753524336746e-01 0.0000000000000000e+00 0.0000000000000000e+00  -3.6838739736237042e-01 0.0000000000000000e+00 0.0000000000000000e+00  -3.6838739736237047e-01 0.0000000000000000e+00 0.0000000000000000e+00  -3.3339753524336696e-01 0.0000000000000000e+00 0.0000000000000000e+00  -2.8963141928509573e-01 0.0000000000000000e+00 0.0000000000000000e+00  -2.4312082919638109e-01 0.0000000000000000e+00 0.0000000000000000e+00  -1.9536804797920596e-01 0.0000000000000000e+00 0.0000000000000000e+00  -1.4694710352962559e-01 0.0000000000000000e+00 0.0000000000000000e+00  -9.8141570372237003e-02 0.0000000000000000e+00 0.0000000000000000e+00  -4.9119871845917519e-02 0.0000000000000000e+00 0.0000000000000000e+00  0.0000000000000000e+00 0.0000000000000000e+00 0.0000000000000000e+00  0.0000000000000000e+00 0.0000000000000000e+00 0.0000000000000000e+00  0.0000000000000000e+00 0.0000000000000000e+00 0.0000000000000000e+00  0.0000000000000000e+00 0.0000000000000000e+00 0.0000000000000000e+00  0.0000000000000000e+00 0.0000000000000000e+00 0.0000000000000000e+00  0.0000000000000000e+00 0.0000000000000000e+00 0.0000000000000000e+00  0.0000000000000000e+00 0.0000000000000000e+00 0.0000000000000000e+00  0.0000000000000000e+00 0.0000000000000000e+00 0.0000000000000000e+00  0.0000000000000000e+00 0.0000000000000000e+00 0.0000000000000000e+00  0.0000000000000000e+00 0.0000000000000000e+00 0.0000000000000000e+00  0.0000000000000000e+00 0.0000000000000000e+00 0.0000000000000000e+00  0.0000000000000000e+00 0.0000000000000000e+00 0.0000000000000000e+00  0.0000000000000000e+00 0.0000000000000000e+00 0.0000000000000000e+00  0.0000000000000000e+00 0.0000000000000000e+00 0.0000000000000000e+00  0.0000000000000000e+00 0.0000000000000000e+00 0.0000000000000000e+00  0.0000000000000000e+00 0.0000000000000000e+00 0.0000000000000000e+00  0.0000000000000000e+00 0.0000000000000000e+00 0.0000000000000000e+00  0.0000000000000000e+00 0.0000000000000000e+00 0.0000000000000000e+00  0.0000000000000000e+00 0.0000000000000000e+00 0.0000000000000000e+00  0.0000000000000000e+00 0.0000000000000000e+00 0.0000000000000000e+00  0.0000000000000000e+00 0.0000000000000000e+00 0.0000000000000000e+00  0.0000000000000000e+00 0.0000000000000000e+00 0.0000000000000000e+00  0.0000000000000000e+00 0.0000000000000000e+00 0.0000000000000000e+00  0.0000000000000000e+00 0.0000000000000000e+00 0.0000000000000000e+00  0.0000000000000000e+00 0.0000000000000000e+00 0.0000000000000000e+00  0.0000000000000000e+00 0.0000000000000000e+00 0.0000000000000000e+00  0.0000000000000000e+00 0.0000000000000000e+00 0.0000000000000000e+00  0.0000000000000000e+00 0.0000000000000000e+00 0.0000000000000000e+00  0.0000000000000000e+00 0.0000000000000000e+00 0.0000000000000000e+00  0.0000000000000000e+00 0.0000000000000000e+00 0.0000000000000000