<?xml version="1.0"?>
<VTKFile type="UnstructuredGrid"  version="0.1"  >
<UnstructuredGrid>
<Piece  NumberOfPoints="6279" NumberOfCells="29919">
<Points>
<DataArray  type="Float64"  NumberOfComponents="3"  format="ascii">-75 -75 75  -75 -75 -75  -75 75 75  -75 75 -75  75 -75 -75  75 -75 75  75 75 75  75 75 -75  9.138956822172808 -1.031281066215086e-15 7.891169061585903  2.915674579543472 -4.719496297924947e-16 12.57523423665263  9.138956822172752 -1.031281066215049e-15 -7.891169061586457  2.915674579543475 -4.719496297924952e-16 -12.57523423665262  7.041719095097281e-16 -1.139817434823012e-31 -13  7.041719095097281e-16 -1.139817434823012e-31 13  -2.915674579543472 -5.529381497974753e-16 -12.57523423665262  -2.915674579543476 -5.529381497974752e-16 12.57523423665263  9.374999999999998 -4.499279347985573e-32 16.23797632095823  9.374999999999998 -4.499279347985573e-32 -16.23797632095823  -9.374999999999998 -4.499279347985573e-32 -16.23797632095823  -9.374999999999998 -4.499279347985573e-32 16.23797632095823  -75 -75 -60  -75 -75 -45  -75 -75 -30  -75 -75 -15  -75 -75 0  -75 -75 15  -75 -75 30  -75 -75 45  -75 -75 60  -75 -60 75  -75 -45 75  -75 -30 75  -75 -15 75  -75 0 75  -75 15 75  -75 30 75  -75 45 75  -75 60 75  -75 75 -60  -75 75 -45  -75 75 -30  -75 75 -15  -75 75 0  -75 75 15  -75 75 30  -75 75 45  -75 75 60  -75 -60 -75  -75 -45 -75  -75 -30 -75  -75 -15 -75  -75 0 -75  -75 15 -75  -75 30 -75  -75 45 -75  -75 60 -75  -60 -75 -75  -45 -75 -75  -30 -75 -75  -15 -75 -75  0 -75 -75  15 -75 -75  30 -75 -75  45 -75 -75  60 -75 -75  75 -75 -60  75 -75 -45  75 -75 -30  75 -75 -15  75 -75 0  75 -75 15  75 -75 30  75 -75 45  75 -75 60  -60 -75 75  -45 -75 75  -30 -75 75  -15 -75 75  0 -75 75  15 -75 75  30 -75 75  45 -75 75  60 -75 75  -60 75 75  -45 75 75  -30 75 75  -15 75 75  0 75 75  15 75 75  30 75 75  45 75 75  60 75 75  75 -60 75  75 -45 75  75 -30 75  75 -15 75  75 0 75  75 15 75  75 30 75  75 45 75  75 60 75  -60 75 -75  -45 75 -75  -30 75 -75  -15 75 -75  0 75 -75  15 75 -75  30 75 -75  45 75 -75  60 75 -75  75 75 -60  75 75 -45  75 75 -30  75 75 -15  75 75 0  75 75 15  75 75 30  75 75 45  75 75 60  75 -60 -75  75 -45 -75  75 -30 -75  75 -15 -75  75 0 -75  75 15 -75  75 30 -75  75 45 -75  75 60 -75  8.889254224486905 -0.9185799833246171 8.096563453245702  8.320874925932202 -1.577238547527214 8.558304303734928  7.621334652409566 -1.997711506600401 9.115792572074398  6.863378983737159 -2.232572456692123 9.706713746389466  6.078476119125654 -2.309028667777115 10.3046193486742  5.286683632781495 -2.234798547873372 10.89364620168206  4.508894843346948 -2.001252301225403 11.45871769684348  3.779747129854152 -1.580377278470662 11.97647010396341  3.180254055875135 -0.9196357680054855 12.39358510127726  9.658362230607352 -1.563363933381987e-15 -7.056488571692945  10.11471260891901 -1.637231707793758e-15 -6.185718971702087  10.50706629661836 -1.70074057087354e-15 -5.284290857382175  10.83475707359202 -1.753782683996929e-15 -4.35738828265178  11.09732629396858 -1.796283807826401e-15 -3.40997092621605  11.29446844700557 -1.828194490450273e-15 -2.446805783855103  11.42598926001013 -1.849483285654993e-15 -1.472505506435895  11.49177554999303 -1.860131872922135e-15 -0.4915698070868553  11.49177554999305 -1.860131872922137e-15 0.491569807086353  11.42598926001018 -1.849483285655002e-15 1.472505506435392  11.29446844700565 -1.828194490450286e-15 2.446805783854605  11.0973262939687 -1.79628380782642e-15 3.409970926215562  10.83475707359218 -1.753782683996955e-15 4.357388282651281  10.50706629661855 -1.700740570873571e-15 5.284290857381687  10.11471260891923 -1.637231707793794e-15 6.185718971701629  9.658362230607608 -1.563363933382029e-15 7.056488571692495  3.180254063610956 -0.9196357809216502 -12.39358509594407  3.779747128517038 -1.580377276468213 -11.97647010485371  4.5088948412668 -2.001252285913665 -11.45871769620332  5.286683641974133 -2.234798551099086 -10.89364619520306  6.078476106859842 -2.309028671268304 -10.30461935782074  6.863378977454694 -2.232572457218762 -9.706713751240915  7.621334630722634 -1.997711517675653 -9.115792589172948  8.320874939063195 -1.577238536935357 -8.55830429336662  8.889254227801914 -0.9185799790100531 -8.096563449708395  0.9840208735391129 -1.592798765106315e-16 -12.95232140656399  1.958869596918194 -3.170750904657092e-16 -12.8100174215393  8.889254233345133 0.9185799643684098 -8.096563446268357  8.320874950396998 1.577238529193218 -8.558304284975272  7.621334655762599 1.997711517331232 -9.115792569408818  6.863378984066532 2.232572457558891 -9.70671374612429  6.078476120451483 2.309028683869801 -10.30461934742729  5.286683646230799 2.234798552056772 -10.89364619208307  4.508894842105297 2.001252299110585 -11.45871769728022  3.77974712633387 1.580377272158316 -11.97647010443873  3.180254067200474 0.9196357874421606 -12.39358509346431  3.180254056019867 0.9196357690865885 12.39358510116501  3.779747128168489 1.580377276284866 11.97647010510136  4.508894852256772 2.001252301537362 11.45871768954493  5.286683633727113 2.234798549401613 10.89364620122833  6.07847611234272 2.309028672618817 10.3046193536795  6.863378981624773 2.232572456641572 9.706713748023224  7.621334604985429 1.997711527200437 9.115792609470098  8.320874934047415 1.577238540866626 8.558304297432809  8.889254222855639 0.9185799879503258 8.096563453702377  1.958869596918191 -3.170750904657087e-16 12.8100174215393  0.9840208735391192 -1.592798765106325e-16 12.95232140656399  -3.180254021144357 0.919635759763347 -12.39358512472651  -3.779747111468513 1.580377266299545 -11.97647011641223  -4.508894853494043 2.001252256793365 -11.45871768636795  -5.286683652987282 2.234798564261888 -10.89364618734174  -6.078476134359348 2.309028692212424 -10.30461933456504  -6.86337900992616 2.232572450142529 -9.706713726274895  -7.621334639436285 1.997711596956519 -9.115792583045614  -8.320874926535605 1.577238562316715 -8.558304305324  -8.889254232841669 0.9185799694045104 -8.096563446651929  -9.138956873371294 1.573903503783013e-09 -7.891169024968964  -8.889254243339874 -0.9185799506144559 -8.096563438041338  -8.320874928821009 -1.577238564782641 -8.558304303440526  -7.62133463500819 -1.997711580019813 -9.115792585331214  -6.863379013714718 -2.232572447941283 -9.706713723432088  -6.078476141465176 -2.309028692544337 -10.30461933000732  -5.286683655950946 -2.234798565002131 -10.89364618516415  -4.508894864113008 -2.00125226094951 -11.45871767876447  -3.779747109662553 -1.580377264652047 -11.97647011773702  -3.180254039971408 -0.9196357942649416 -12.39358511175985  -3.18025401846781 -0.9196357593840225 12.39358512652238  -3.779747108939239 -1.580377264141646 11.97647011823586  -4.508894851433351 -2.001252254647683 11.45871768785938  -5.28668365332457 -2.234798564375886 10.89364618709314  -6.07847612059722 -2.309028692605587 10.30461934487209  -6.863379009203788 -2.232572450080907 9.706713726838771  -7.621334641632127 -1.997711605821148 9.115792581949513  -8.320874926429701 -1.577238563271378 8.558304305402579  -8.889254231358674 -0.9185799726020736 8.096563447850359  -9.138956874612326 -5.465415708384453e-09 7.891169024046041  -8.889254226817478 0.9185799790015028 8.096563451594164  -8.320874927176668 1.577238565883108 8.558304304769171  -7.621334633574476 1.997711580966202 9.115792586400277  -6.863379011720864 2.232572448329639 9.706713724973351  -6.078476140704361 2.309028693001206 10.30461933047813  -5.286683653055961 2.2347985644593 10.89364618729128  -4.50889485391773 2.001252254038061 11.45871768606202  -3.779747111091039 1.580377266149544 11.9764701166502  -3.180254021527036 0.919635757536394 12.39358512450844  9.435184835762074 -5.526442801781307e-16 8.821081167040482  9.703143450113481 -5.177919080989411e-16 9.759517793466097  9.937200675325906 -4.779633737078977e-16 10.70695790626853  10.12910341876892 -4.320797713022975e-16 11.6637899524176  10.26600480865004 -3.785108670599938e-16 12.62994894620973  10.32620016295587 -3.146209333354188e-16 13.60371185817688  10.26870906497679 -2.357846813887925e-16 14.5770457723685  10.00580515052717 -1.33532837240554e-16 15.51326561927512  10.00580515052715 -1.335328372405468e-16 -15.51326561927517  10.26870906497678 -2.357846813887823e-16 -14.57704577236862  10.32620016295587 -3.14620933335407e-16 -13.60371185817704  10.26600480865006 -3.785108670599807e-16 -12.62994894620994  10.12910341876897 -4.320797713022828e-16 -11.66378995241788  9.937200675325981 -4.779633737078828e-16 -10.70695790626886  9.703143450113588 -5.177919080989258e-16 -9.759517793466491  9.435184835762206 -5.526442801781154e-16 -8.821081167040916  -8.430884098799956 -1.336655841598856e-16 -16.42182348534589  -7.48769638746109 -2.359844337220147e-16 -16.18066913368463  -6.615222668164609 -3.148585424744291e-16 -15.74292694759924  -5.801300696653656 -3.787728356152977e-16 -15.20300575569049  -5.03236836252092 -4.323577802708782e-16 -14.60043301613841  -4.299051426214477 -4.782513724185397e-16 -13.95487352285605  -3.594975800611937 -5.180849754994398e-16 -13.27748885545357  -3.594975800611939 -5.180849754994396e-16 13.27748885545357  -4.299051426214471 -4.7825137241854e-16 13.95487352285604  -5.032368362520926 -4.32357780270878e-16 14.60043301613841  -5.801300696653643 -3.787728356152987e-16 15.20300575569047  -6.615222668164595 -3.148585424744302e-16 15.74292694759923  -7.487696387461072 -2.359844337220164e-16 16.18066913368462  -8.430884098799954 -1.33665584159886e-16 16.42182348534589  -75 -60.74998678227594 -5.413455946347426  -75 61.50907427704607 6.421476138283367  -75 -7.500000000000028 62.00961894323339  -75 7.5 -62.00961894323342  -75 -61.71300729890635 22.69138357274757  -75 22.5 62.00961894323342  -75 62.00961894323342 -22.5  -75 -22.5 -62.00961894323342  -75 -61.69123533526345 -37.19377007443569  -75 -37.81297757236224 62.15819488684329  -75 61.55555812566854 38.80088482059872  -75 36.89682048485673 -63.06116146554901  -75 -61.8617769373551 50.59895212827973  -75 52.43643946078686 62.29841932416252  -75 62.5575389
[...]
<PointData  Vectors="disp"> 
<DataArray  type="Float64"  Name="disp"  NumberOfComponents="3" format="ascii">0.0000000000000000e+00 0.0000000000000000e+00 0.0000000000000000e+00  0.0000000000000000e+00 0.0000000000000000e+00 0.0000000000000000e+00  0.0000000000000000e+00 0.0000000000000000e+00 0.0000000000000000e+00  0.0000000000000000e+00 0.0000000000000000e+00 0.0000000000000000e+00  0.0000000000000000e+00 0.0000000000000000e+00 0.0000000000000000e+00  0.0000000000000000e+00 0.0000000000000000e+00 0.0000000000000000e+00  0.0000000000000000e+00 0.0000000000000000e+00 0.0000000000000000e+00  0.0000000000000000e+00 0.0000000000000000e+00 0.0000000000000000e+00  5.9601892318518319e-02 -2.0354231570034596e-16 1.2756715286717437e+00  1.9015268997022640e-02 -9.3147953248518713e-17 2.0328886831442361e+00  5.9601892318517952e-02 -2.0354231570033863e-16 -1.2756715286718330e+00  1.9015268997022664e-02 -9.3147953248518799e-17 -2.0328886831442348e+00  4.5924254968025751e-18 -2.2496396739927867e-32 -2.1015555164648574e+00  4.5924254968025751e-18 -2.2496396739927867e-32 2.1015555164648574e+00  -1.9015268997022640e-02 -1.0913252956529118e-16 -2.0328886831442348e+00  -1.9015268997022671e-02 -1.0913252956529116e-16 2.0328886831442361e+00  6.1141304347826074e-02 -8.8801566078662629e-33 2.6250006702719606e+00  6.1141304347826074e-02 -8.8801566078662629e-33 -2.6250006702719606e+00  -6.1141304347826074e-02 -8.8801566078662629e-33 -2.6250006702719606e+00  -6.1141304347826074e-02 -8.8801566078662629e-33 2.6250006702719606e+00  0.0000000000000000e+00 0.0000000000000000e+00 0.0000000000000000e+00  0.0000000000000000e+00 0.0000000000000000e+00 0.0000000000000000e+00  0.0000000000000000e+00 0.0000000000000000e+00 0.0000000000000000e+00  0.0000000000000000e+00 0.0000000000000000e+00 0.0000000000000000e+00  0.0000000000000000e+00 0.0000000000000000e+00 0.0000000000000000e+00  0.0000000000000000e+00 0.0000000000000000e+00 0.0000000000000000e+00  0.0000000000000000e+00 0.0000000000000000e+00 0.0000000000000000e+00  0.0000000000000000e+00 0.0000000000000000e+00 0.0000000000000000e+00  0.0000000000000000e+00 0.0000000000000000e+00 0.0000000000000000e+00  0.0000000000000000e+00 0.0000000000000000e+00 0.0000000000000000e+00  0.0000000000000000e+00 0.0000000000000000e+00 0.0000000000000000e+00  0.0000000000000000e+00 0.0000000000000000e+00 0.0000000000000000e+00  0.0000000000000000e+00 0.0000000000000000e+00 0.0000000000000000e+00  0.0000000000000000e+00 0.0000000000000000e+00 0.0000000000000000e+00  0.0000000000000000e+00 0.0000000000000000e+00 0.0000000000000000e+00  0.0000000000000000e+00 0.0000000000000000e+00 0.0000000000000000e+00  0.0000000000000000e+00 0.0000000000000000e+00 0.0000000000000000e+00  0.0000000000000000e+00 0.0000000000000000e+00 0.0000000000000000e+00  0.0000000000000000e+00 0.0000000000000000e+00 0.0000000000000000e+00  0.0000000000000000e+00 0.0000000000000000e+00 0.0000000000000000e+00  0.0000000000000000e+00 0.0000000000000000e+00 0.0000000000000000e+00  0.0000000000000000e+00 0.0000000000000000e+00 0.0000000000000000e+00  0.0000000000000000e+00 0.0000000000000000e+00 0.0000000000000000e+00  0.0000000000000000e+00 0.0000000000000000e+00 0.0000000000000000e+00  0.0000000000000000e+00 0.0000000000000000e+00 0.0000000000000000e+00  0.0000000000000000e+00 0.0000000000000000e+00 0.0000000000000000e+00  0.0000000000000000e+00 0.0000000000000000e+00 0.0000000000000000e+00  0.0000000000000000e+00 0.0000000000000000e+00 0.0000000000000000e+00  0.0000000000000000e+00 0.0000000000000000e+00 0.0000000000000000e+00  0.0000000000000000e+00 0.0000000000000000e+00 0.0000000000000000e+00  0.0000000000000000e+00 0.0000000000000000e+00 0.0000000000000000e+00  0.0000000000000000e+00 0.0000000000000000e+00 0.0000000000000000e+00  0.0000000000000000e+00 0.0000000000000000e+00 0.0000000000000000e+00  0.0000000000000000e+00 0.0000000000000000e+00 0.0000000000000000e+00  0.0000000000000000e+00 0.0000000000000000e+00 0.0000000000000000e+00  0.0000000000000000e+00 0.0000000000000000e+00 0.0000000000000000e+00  0.0000000000000000e+00 0.0000000000000000e+00 0.0000000000000000e+00  0.0000000000000000e+00 0.0000000000000000e+00 0.0000000000000000e+00  0.0000000000000000e+00 0.0000000000000000e+00 0.0000000000000000e+00  0.0000000000000000e+00 0.0000000000000000e+00 0.0000000000000000e+00  0.0000000000000000e+00 0.0000000000000000e+00 0.0000000000000000e+00  0.0000000000000000e+00 0.0000000000000000e+00 0.0000000000000000e+00  0.0000000000000000e+00 0.0000000000000000e+00 0.0000000000000000e+00  0.0000000000000000e+00 0.0000000000000000e+00 0.0000000000000000e+00  0.0000000000000000e+00 0.0000000000000000e+00 0.0000000000000000e+00  0.0000000000000000e+00 0.0000000000000000e+00 0.0000000000000000e+00  0.0000000000000000e+00 0.0000000000000000e+00 0.0000000000000000e+00  0.0000000000000000e+00 0.0000000000000000e+00 0.0000000000000000e+00  0.0000000000000000e+00 0.0000000000000000e+00 0.0000000000000000e+00  0.0000000000000000e+00 0.0000000000000000e+00 0.0000000000000000e+00  0.0000000000000000e+00 0.0000000000000000e+00 0.0000000000000000e+00  0.0000000000000000e+00 0.0000000000000000e+00 0.0000000000000000e+00  0.0000000000000000e+00 0.0000000000000000e+00 0.0000000000000000e+00  0.0000000000000000e+00 0.0000000000000000e+00 0.0000000000000000e+00  0.0000000000000000e+00 0.0000000000000000e+00 0.0000000000000000e+00  0.0000000000000000e+00 0.0000000000000000e+00 0.0000000000000000e+00  0.0000000000000000e+00 0.0000000000000000e+00 0.0000000000000000e+00  0.0000000000000000e+00 0.0000000000000000e+00 0.0000000000000000e+00  0.0000000000000000e+00 0.0000000000000000e+00 0.0000000000000000e+00  0.0000000000000000e+00 0.0000000000000000e+00 0.0000000000000000e+00  0.0000000000000000e+00 0.0000000000000000e+00 0.0000000000000000e+00  0.0000000000000000e+00 0.0000000000000000e+00 0.0000000000000000e+00  0.0000000000000000e+00 0.0000000000000000e+00 0.0000000000000000e+00  0.0000000000000000e+00 0.0000000000000000e+00 0.0000000000000000e+00  0.0000000000000000e+00 0.0000000000000000e+00 0.0000000000000000e+00  0.0000000000000000e+00 0.0000000000000000e+00 0.0000000000000000e+00  0.0000000000000000e+00 0.0000000000000000e+00 0.0000000000000000e+00  0.0000000000000000e+00 0.0000000000000000e+00 0.0000000000000000e+00  0.0000000000000000e+00 0.0000000000000000e+00 0.0000000000000000e+00  0.0000000000000000e+00 0.0000000000000000e+00 0.0000000000000000e+00  0.0000000000000000e+00 0.0000000000000000e+00 0.0000000000000000e+00  0.0000000000000000e+00 0.0000000000000000e+00 0.0000000000000000e+00  0.0000000000000000e+00 0.0000000000000000e+00 0.0000000000000000e+00  0.0000000000000000e+00 0.0000000000000000e+00 0.0000000000000000e+00  0.0000000000000000e+00 0.0000000000000000e+00 0.0000000000000000e+00  0.0000000000000000e+00 0.0000000000000000e+00 0.0000000000000000e+00  0.0000000000000000e+00 0.0000000000000000e+00 0.0000000000000000e+00  0.0000000000000000e+00 0.0000000000000000e+00 0.0000000000000000e+00  0.0000000000000000e+00 0.0000000000000000e+00 0.0000000000000000e+00  0.0000000000000000e+00 0.0000000000000000e+00 0.0000000000000000e+00  0.0000000000000000e+00 0.0000000000000000e+00 0.0000000000000000e+00  0.0000000000000000e+00 0.0000000000000000e+00 0.0000000000000000e+00  0.0000000000000000e+00 0.0000000000000000e+00 0.0000000000000000e+00  0.0000000000000000e+00 0.0000000000000000e+00 0.0000000000000000e+00  0.0000000000000000e+00 0.0000000000000000e+00 0.0000000000000000e+00  0.0000000000000000e+00 0.0000000000000000e+00 0.0000000000000000e+00  0.0000000000000000e+00 0.0000000000000000e+00 0.0000000000000000e+00  0.0000000000000000e+00 0.0000000000000000e+00 0.0000000000000000e+00  0.0000000000000000e+00 0.0000000000000000e+00 0.0000000000000000e+00  0.0000000000000000e+00 0.0000000000000000e+00 0.0000000000000000e+00  0.0000000000000000e+00 0.0000000000000000e+00 0.0000000000000000e+00  0.0000000000000000e+00 0.0000000000000000e+00 0.0000000000000000e+00  0.0000000000000000e+00 0.0000000000000000e+00 0.0000000000000000e+00  0.0000000000000000e+00 0.0000000000000000e+00 0.0000000000000000e+00  0.0000000000000000e+00 0.0000000000000000e+00 0.0000000000000000e+00  0.0000000000000000e+00 0.0000000000000000e+00 0.0000000000000000e+00  0.0000000000000000e+00 0.0000000000000000e+00 0.0000000000000000e+00  0.0000000000000000e+00 0.0000000000000000e+00 0.0000000000000000e+00  0.0000000000000000e+00 0.0000000000000000e+00 0.0000000000000000e+00  0.0000000000000000e+00 0.0000000000000000e+00 0.0000000000000000e+00  0.0000000000000000e+00 0.0000000000000000e+00 0.0000000000000000e+00  0.0000000000000000e+00 0.0000000000000000e+00 0.0000000000000000e+00  0.0000000000000000e+00 0.0000000000000000e+00 0.0000000000000000e+00  0.0000000000000000e+00 0.0000000000000000e+00 0.0000000000000000e+00  0.0000000000000000e+00 0.0000000000000000e+00 0.0000000000000000e+00  0.0000000000000000e+00 0.0000000000000000e+00 0.0000000000000000e+00  0.0000000000000000e+00 0.0000000000000000e+00 0.0000000000000000e+00  0.0000000000000000e+00 0.0000000000000000e+00 0.0000000000000000e+00  5.7973397116218947e-02 -1.8129868091933232e-01 1.3088751991981737e+00  5.4266575603905673e-02 -3.1129708174879223e-01 1.3835193554691589e+00  4.9704356428758041e-02 -3.9428516577639494e-01 1.4736418589840248e+00  4.4761167285242348e-02 -4.4063930066291901e-01 1.5691690631130804e+00  3.9642235559515140e-02 -4.5572934232443063e-01 1.6658253567135979e+00  3.4478371518140184e-02 -4.4107866076448132e-01 1.7610463284277977e+00  2.9405835934871401e-02 -3.9498400682080320e-01 1.8523947221088386e+00  2.4650524759918382e-02 -3.1191656811920965e-01 1.9360936011354419e+00  2.0740787320924794e-02 -1.8150705947476689e-01 2.0035236260281457e+00  6.2989318895265350e-02 -3.0855867106223426e-16 -1.1407386526701948e+00  6.5965517014689196e-02 -3.2313783706455756e-16 -9.9997167909860352e-01  6.8524345412728435e-02 -3.3567248109346188e-16 -8.5424850784125528e-01  7.0661459175600128e-02 -3.4614131920992025e-16 -7.0440718329124452e-01  7.2373867134577705e-02 -3.5452969891310549e-16 -5.5124947776723987e-01  7.3659576828297185e-02 -3.6082785995729075e-16 -3.9554601482913926e-01  7.4517321260935618e-02 -3.6502959585295912e-16 -2.3804246692886408e-01  7.4946362282563239e-02 -3.6713129070831616e-16 -7.9466249216226650e-02  7.4946362282563378e-02 -3.6713129070831651e-16 7.9466249216145451e-02  7.4517321260935965e-02 -3.6502959585296089e-16 2.3804246692878281e-01  7.3659576828297713e-02 -3.6082785995729332e-16 3.9554601482905882e-01  7.2373867134578496e-02 -3.5452969891310924e-16 5.5124947776716093e-01  7.0661459175601168e-02 -3.4614131920992538e-16 7.0440718329116392e-01  6.8524345412729670e-02 -3.3567248109346794e-16 8.5424850784117645e-01  6.5965517014690639e-02 -3.2313783706456461e-16 9.9997167909852935e-01  6.2989318895267016e-02 -3.0855867106224260e-16 1.1407386526701220e+00  2.0740787371375805e-02 -1.8150706202400990e-01 -2.0035236251659923e+00  2.4650524751198073e-02 -3.1191656772398940e-01 -1.9360936012793666e+00  2.9405835921305218e-02 -3.9498400379874971e-01 -1.8523947220053514e+00  3.4478371578092179e-02 -4.4107866140113539e-01 -1.7610463273804149e+00  3.9642235479520713e-02 -4.5572934301348106e-01 -1.6658253581922100e+00  4.4761167244269748e-02 -4.4063930076686103e-01 -1.5691690638973566e+00  4.9704356287321526e-02 -3.9428516796229995e-01 -1.4736418617481442e+00  5.4266575689542580e-02 -3.1129707965829417e-01 -1.3835193537930377e+00  5.7973397137838570e-02 -1.8129868006777367e-01 -1.3088751986263394e+00  6.4175274361246495e-03 -3.1436817732361487e-17 -2.0938478848454158e+00  1.2775236501640396e-02 -6.2580609960337330e-17 -2.0708432906343726e+00  5.7973397173989999e-02 1.8129867717797563e-01 -1.3088751980702293e+00  5.4266575763458690e-02 3.1129707813024038e-01 -1.3835193524365084e+00  4.9704356450625653e-02 3.9428516789432216e-01 -1.4736418585531119e+00  4.4761167287390435e-02 4.4063930083399161e-01 -1.5691690630702124e+00  3.9642235568161849e-02 4.5572934550061861e-01 -1.6658253565120247e+00  3.4478371605853035e-02 4.4107866159015241e-01 -1.7610463268760432e+00  2.9405835926773680e-02 3.9498400640340497e-01 -1.8523947221794408e+00  2.4650524736960021e-02 3.1191656687335190e-01 -1.9360936012122814e+00  2.0740787394785701e-02 1.8150706331095273e-01 -2.0035236247651187e+00  2.0740787321868702e-02 1.8150705968814246e-01 2.0035236260099993e+00  2.4650524748924929e-02 3.1191656768780257e-01 1.9360936013194010e+00  2.9405835992978947e-02 3.9498400688237412e-01 1.8523947209289686e+00  3.4478371524307258e-02 4.4107866106610782e-01 1.7610463283544486e+00  3.9642235515278616e-02 4.5572934328002973e-01 1.6658253575227449e+00  4.4761167271465910e-02 4.4063930065294182e-01 1.5691690633771906e+00  4.9704356119470196e-02 3.9428516984219159e-01 1.4736418650293430e+00  5.4266575656830969e-02 3.1129708043420257e-01 1.3835193544503703e+00  5.7973397105580256e-02 1.8129868183230116e-01 1.3088751992719991e+00  1.2775236501640377e-02 -6.2580609960337244e-17 2.0708432906343726e+00  6.4175274361246912e-03 -3.1436817732361678e-17 2.0938478848454158e+00  -2.0740787094419722e-02 1.8150705784802904e-01 -2.0035236298189072e+00  -2.4650524640012047e-02 3.1191656571701548e-01 -1.9360936031478946e+00  -2.9405836001048107e-02 3.9498399805132206e-01 -1.8523947204153834e+00  -3.4478371649917051e-02 4.4107866399905682e-01 -1.7610463261095690e+00  -3.9642235658865314e-02 4.5572934714718893e-01 -1.6658253544327375e+00  -4.4761167456040175e-02 4.4063929937023599e-01 -1.5691690598613965e+00  -4.9704356344149686e-02 3.9428518360983927e-01 -1.4736418607576107e+00  -5.4266575607840914e-02 3.1129708466777273e-01 -1.3835193557260455e+00  -5.7973397170706542e-02 1.8129867817194284e-01 -1.3088751981322369e+00  -5.9601892652421481e-02 3.1063884943085778e-10 -1.2756715227523181e+00  -5.7973397239173094e-02 -1.8129867446337947e-01 -1.3088751967402650e+00  -5.4266575622745714e-02 -3.1129708515446863e-01 -1.3835193554215666e+00  -4.9704356315270808e-02 -3.9428518026706838e-01 -1.4736418611270965e+00  -4.4761167480748168e-02 -4.4063929893577952e-01 -1.5691690594018337e+00  -3.9642235705207675e-02 -4.5572934721269814e-01 -1.6658253536959449e+00  -3.4478371669245299e-02 -4.4107866414515745e-01 -1.7610463257575437e+00  -2.9405836070302230e-02 -3.9498399887161384e-01 -1.8523947191862196e+00  -2.4650524628234041e-02 -3.1191656539185142e-01 -1.9360936033620577e+00  -2.0740787217204838e-02 -1.8150706465755428e-01 -2.0035236277227413e+00  -2.0740787076963980e-02 -1.8150705777316234e-01 2.0035236301092239e+00  -2.4650524623516776e-02 -3.1191656529111439e-01 1.9360936034426992e+00  -2.9405835987608816e-02 -3.9498399762783215e-01 1.8523947206564855e+00  -3.4478371652116764e-02 -4.4107866402155649e-01 1.7610463260693807e+00  -3.9642235569112304e-02 -4.5572934722478697e-01 1.6658253560989558e+00  -4.4761167451329055e-02 -4.4063929935807378e-01 1.5691690599525516e+00  -4.9704356358470390e-02 -3.9428518535943713e-01 1.4736418605804171e+00  -5.4266575607150223e-02 -3.1129708485619306e-01 1.3835193557387484e+00  -5.7973397161034834e-02 -1.8129867880304082e-01 1.3088751983259728e+00  -5.9601892660515174e-02 -1.0787004687600894e-09 1.2756715226031201e+00  -5.7973397131418337e-02 1.8129868006608610e-01 1.3088751989311893e+00  -5.4266575612021750e-02 3.1129708537166612e-01 1.3835193556363528e+00  -4.9704356305920495e-02 3.9428518045385569e-01 1.4736418612999191e+00  -4.4761167467744778e-02 4.4063929901242871e-01 1.5691690596509915e+00  -3.9642235700245838e-02 4.5572934730286957e-01 1.6658253537720555e+00  -3.4478371650364964e-02 4.4107866403801971e-01 1.7610463261014115e+00  -2.9405836003811282e-02 3.9498399750751201e-01 1.8523947203659277e+00  -2.4650524637550256e-02 3.1191656568741005e-01 1.9360936031863643e+00  -2.0740787096915451e-02 1.8150705740849885e-01 2.0035236297836545e+00  6.1533814146274401e-02 -1.0907452898252580e-16 1.4259993682906296e+00  6.3281370326827055e-02 -1.0219577133531731e-16 1.5777052659150466e+00  6.4807830491255908e-02 -9.4334876389716652e-17 1.7308666501904342e+00  6.6059370122406008e-02 -8.5278902230716613e-17 1.8855463167223525e+00  6.6952205273804605e-02 -7.4706092182893519e-17 2.0417337600443517e+00  6.7344783671451330e-02 -6.2096236842516865e-17 2.1991504384576932e+00  6.6969841728109505e-02 -4.6536450274103784e-17 2.3564977658985957e+00  6.5255250981698931e-02 -2.6355165244846185e-17 2.5078453031209413e+00  6.5255250981698806e-02 -2.6355165244844765e-17 -2.5078453031209493e+00  6.6969841728109450e-02 -4.6536450274101763e-17 -2.3564977658986157e+00  6.7344783671451330e-02 -6.2096236842514536e-17 -2.1991504384577190e+00  6.6952205273804744e-02 -7.4706092182890931e-17 -2.0417337600443854e+00  6.6059370122406327e-02 -8.5278902230713704e-17 -1.8855463167223976e+00  6.4807830491256407e-02 -9.4334876389713719e-17 -1.7308666501904877e+00  6.3281370326827749e-02 -1.0219577133531431e-16 -1.5777052659151105e+00  6.1533814146275255e-02 -1.0907452898252278e-16 -1.4259993682906997e+00  -5.4984026731304057e-02 -2.6381365294714269e-17 -2.6547210566185231e+00  -4.8832802526920148e-02 -4.6575875076713432e-17 -2.6157364983067368e+00  -4.3142756531508321e-02 -6.2143133383111012e-17 -2.5449719209254185e+00  -3.7834569760784718e-02 -7.4757796503019292e-17 -2.4576892779014101e+00  -3.2819793668614698e-02 -8.5333772421883859e-17 -2.3602785036801008e+00  -2.8037291910094412e-02 -9.4391718240501257e-17 -2.2559185718098083e+00  -2.3445494351816979e-02 -1.0225361358541575e-16 -2.1464138422291623e+00  -2.3445494351816996e-02 -1.0225361358541572e-16 2.1464138422291623e+00  -2.8037291910094381e-02 -9.4391718240501331e-17 2.2559185718098065e+00  -3.2819793668614733e-02 -8.5333772421883822e-17 2.3602785036801008e+00  -3.7834569760784628e-02 -7.4757796503019477e-17 2.4576892779014061e+00  -4.3142756531508231e-02 -6.2143133383111221e-17 2.5449719209254167e+00  -4.8832802526920037e-02 -4.6575875076713765e-17 2.6157364983067355e+00  -5.4984026731304050e-02 -2.6381365294714346e-17 2.6547210566185231e+00  0.0000000000000000e+00 0.0000000000000000e+00 0.0000000000000000e+00  0.0000000000000000e+00 0.0000000000000000e+00 0.0000000000000000e+00  0.0000000000000000e+00 0.0000000000000000e+00 0.0000000000000000e+00  0.0000000000000000e+00 0.0000000000000000e+00 0.0000000000000000e+00  0.0000000000000000e+00 0.0000000000000000e+00 0.0000000000000000e+00  0.0000000000000000e+00 0.0000000000000000e+00 0.0000000000000000e+00  0.0000000000000000e+00 0.0000000000000000e+00 0.0000000000000000e+00  0.0000000000000000e+00 0.0000000000000000e+00 0.0000000000000000e+00  0.0000000000000000e+00 0.0000000000000000e+00 0.0000000000000000e+00  0.0000000000000000e+00 0.0000000000000000e+00 0.0000000000000000e+00  0.0000000000000000e+00 0.0000000000000000e+00 0.0000000000000000e+00  0.0000000000000000e+00 0.0000000000000000e+00 0.0000000000000000e+00  0.0000000000000000e+00 0.0000000000000000e+00 0.0000000000000000e+00  0.0000000000000000e+00 0.0000000000000000e+00 0.0000000000000000e+00  0.0000000000000000e+00 0.0000000000000000e+00 0.0000000000000000e+00  0.0000000000000000e+00 0.0000000000000000e+00 0.0000000000000000e+00  0.0000000000000000e+00 0.0000000000000000e+00 0.0000000000000000e+00  0.0000000000000000e+00 0.0000000000000000e+00 0.0000000000000000e+00  0.0000000000000000e+00 0.0000000000000000e+00 0.0000000000000000e+00  0.0000000000000000e+00 0.0000000000000000e+00 0.0000000000000000e+00  0.0000000000000000e+00 0.0000000000000000e+00 0.0000000000000000e+00  0.0000000000000000e+00 0.0000000000000000e+00 0.0000000000000000e+00  0.0000000000000000e+00 0.0000000000000000e+00 0.0000000000000000e+00  0.0000000000000000e+00 0.0000000000000000e+00 0.0000000000000000e+00  0.0000000000000000e+00 0.0000000000000000e+00 0.0000000000000000e+00  0.0000000000000000e+00 0.0000000000000000e+00 0.0000000000000000e+00  0.0000000000000000e+00 0.0000000000000000e+00 0.0000000000000000e+00  0.0000000000000000e+00 0.0000000000000000e+00 0.0000000000000000e+00  0.0000000000000000e+00 0.0000000000000000e+00 0.0000000000000000e+00 