<?xml version="1.0"?>
<VTKFile type="UnstructuredGrid"  version="0.1"  >
<UnstructuredGrid>
<Piece  NumberOfPoints="6279" NumberOfCells="29919">
<Points>
<DataArray  type="Float64"  NumberOfComponents="3"  format="ascii">-75 -75 75  -75 -75 -75  -75 75 75  -75 75 -75  75 -75 -75  75 -75 75  75 75 75  75 75 -75  9.138956822172808 -1.031281066215086e-15 7.891169061585903  2.915674579543472 -4.719496297924947e-16 12.57523423665263  9.138956822172752 -1.031281066215049e-15 -7.891169061586457  2.915674579543475 -4.719496297924952e-16 -12.57523423665262  7.041719095097281e-16 -1.139817434823012e-31 -13  7.041719095097281e-16 -1.139817434823012e-31 13  -2.915674579543472 -5.529381497974753e-16 -12.57523423665262  -2.915674579543476 -5.529381497974752e-16 12.57523423665263  9.374999999999998 -4.499279347985573e-32 16.23797632095823  9.374999999999998 -4.499279347985573e-32 -16.23797632095823  -9.374999999999998 -4.499279347985573e-32 -16.23797632095823  -9.374999999999998 -4.499279347985573e-32 16.23797632095823  -75 -75 -60  -75 -75 -45  -75 -75 -30  -75 -75 -15  -75 -75 0  -75 -75 15  -75 -75 30  -75 -75 45  -75 -75 60  -75 -60 75  -75 -45 75  -75 -30 75  -75 -15 75  -75 0 75  -75 15 75  -75 30 75  -75 45 75  -75 60 75  -75 75 -60  -75 75 -45  -75 75 -30  -75 75 -15  -75 75 0  -75 75 15  -75 75 30  -75 75 45  -75 75 60  -75 -60 -75  -75 -45 -75  -75 -30 -75  -75 -15 -75  -75 0 -75  -75 15 -75  -75 30 -75  -75 45 -75  -75 60 -75  -60 -75 -75  -45 -75 -75  -30 -75 -75  -15 -75 -75  0 -75 -75  15 -75 -75  30 -75 -75  45 -75 -75  60 -75 -75  75 -75 -60  75 -75 -45  75 -75 -30  75 -75 -15  75 -75 0  75 -75 15  75 -75 30  75 -75 45  75 -75 60  -60 -75 75  -45 -75 75  -30 -75 75  -15 -75 75  0 -75 75  15 -75 75  30 -75 75  45 -75 75  60 -75 75  -60 75 75  -45 75 75  -30 75 75  -15 75 75  0 75 75  15 75 75  30 75 75  45 75 75  60 75 75  75 -60 75  75 -45 75  75 -30 75  75 -15 75  75 0 75  75 15 75  75 30 75  75 45 75  75 60 75  -60 75 -75  -45 75 -75  -30 75 -75  -15 75 -75  0 75 -75  15 75 -75  30 75 -75  45 75 -75  60 75 -75  75 75 -60  75 75 -45  75 75 -30  75 75 -15  75 75 0  75 75 15  75 75 30  75 75 45  75 75 60  75 -60 -75  75 -45 -75  75 -30 -75  75 -15 -75  75 0 -75  75 15 -75  75 30 -75  75 45 -75  75 60 -75  8.889254224486905 -0.9185799833246171 8.096563453245702  8.320874925932202 -1.577238547527214 8.558304303734928  7.621334652409566 -1.997711506600401 9.115792572074398  6.863378983737159 -2.232572456692123 9.706713746389466  6.078476119125654 -2.309028667777115 10.3046193486742  5.286683632781495 -2.234798547873372 10.89364620168206  4.508894843346948 -2.001252301225403 11.45871769684348  3.779747129854152 -1.580377278470662 11.97647010396341  3.180254055875135 -0.9196357680054855 12.39358510127726  9.658362230607352 -1.563363933381987e-15 -7.056488571692945  10.11471260891901 -1.637231707793758e-15 -6.185718971702087  10.50706629661836 -1.70074057087354e-15 -5.284290857382175  10.83475707359202 -1.753782683996929e-15 -4.35738828265178  11.09732629396858 -1.796283807826401e-15 -3.40997092621605  11.29446844700557 -1.828194490450273e-15 -2.446805783855103  11.42598926001013 -1.849483285654993e-15 -1.472505506435895  11.49177554999303 -1.860131872922135e-15 -0.4915698070868553  11.49177554999305 -1.860131872922137e-15 0.491569807086353  11.42598926001018 -1.849483285655002e-15 1.472505506435392  11.29446844700565 -1.828194490450286e-15 2.446805783854605  11.0973262939687 -1.79628380782642e-15 3.409970926215562  10.83475707359218 -1.753782683996955e-15 4.357388282651281  10.50706629661855 -1.700740570873571e-15 5.284290857381687  10.11471260891923 -1.637231707793794e-15 6.185718971701629  9.658362230607608 -1.563363933382029e-15 7.056488571692495  3.180254063610956 -0.9196357809216502 -12.39358509594407  3.779747128517038 -1.580377276468213 -11.97647010485371  4.5088948412668 -2.001252285913665 -11.45871769620332  5.286683641974133 -2.234798551099086 -10.89364619520306  6.078476106859842 -2.309028671268304 -10.30461935782074  6.863378977454694 -2.232572457218762 -9.706713751240915  7.621334630722634 -1.997711517675653 -9.115792589172948  8.320874939063195 -1.577238536935357 -8.55830429336662  8.889254227801914 -0.9185799790100531 -8.096563449708395  0.9840208735391129 -1.592798765106315e-16 -12.95232140656399  1.958869596918194 -3.170750904657092e-16 -12.8100174215393  8.889254233345133 0.9185799643684098 -8.096563446268357  8.320874950396998 1.577238529193218 -8.558304284975272  7.621334655762599 1.997711517331232 -9.115792569408818  6.863378984066532 2.232572457558891 -9.70671374612429  6.078476120451483 2.309028683869801 -10.30461934742729  5.286683646230799 2.234798552056772 -10.89364619208307  4.508894842105297 2.001252299110585 -11.45871769728022  3.77974712633387 1.580377272158316 -11.97647010443873  3.180254067200474 0.9196357874421606 -12.39358509346431  3.180254056019867 0.9196357690865885 12.39358510116501  3.779747128168489 1.580377276284866 11.97647010510136  4.508894852256772 2.001252301537362 11.45871768954493  5.286683633727113 2.234798549401613 10.89364620122833  6.07847611234272 2.309028672618817 10.3046193536795  6.863378981624773 2.232572456641572 9.706713748023224  7.621334604985429 1.997711527200437 9.115792609470098  8.320874934047415 1.577238540866626 8.558304297432809  8.889254222855639 0.9185799879503258 8.096563453702377  1.958869596918191 -3.170750904657087e-16 12.8100174215393  0.9840208735391192 -1.592798765106325e-16 12.95232140656399  -3.180254021144357 0.919635759763347 -12.39358512472651  -3.779747111468513 1.580377266299545 -11.97647011641223  -4.508894853494043 2.001252256793365 -11.45871768636795  -5.286683652987282 2.234798564261888 -10.89364618734174  -6.078476134359348 2.309028692212424 -10.30461933456504  -6.86337900992616 2.232572450142529 -9.706713726274895  -7.621334639436285 1.997711596956519 -9.115792583045614  -8.320874926535605 1.577238562316715 -8.558304305324  -8.889254232841669 0.9185799694045104 -8.096563446651929  -9.138956873371294 1.573903503783013e-09 -7.891169024968964  -8.889254243339874 -0.9185799506144559 -8.096563438041338  -8.320874928821009 -1.577238564782641 -8.558304303440526  -7.62133463500819 -1.997711580019813 -9.115792585331214  -6.863379013714718 -2.232572447941283 -9.706713723432088  -6.078476141465176 -2.309028692544337 -10.30461933000732  -5.286683655950946 -2.234798565002131 -10.89364618516415  -4.508894864113008 -2.00125226094951 -11.45871767876447  -3.779747109662553 -1.580377264652047 -11.97647011773702  -3.180254039971408 -0.9196357942649416 -12.39358511175985  -3.18025401846781 -0.9196357593840225 12.39358512652238  -3.779747108939239 -1.580377264141646 11.97647011823586  -4.508894851433351 -2.001252254647683 11.45871768785938  -5.28668365332457 -2.234798564375886 10.89364618709314  -6.07847612059722 -2.309028692605587 10.30461934487209  -6.863379009203788 -2.232572450080907 9.706713726838771  -7.621334641632127 -1.997711605821148 9.115792581949513  -8.320874926429701 -1.577238563271378 8.558304305402579  -8.889254231358674 -0.9185799726020736 8.096563447850359  -9.138956874612326 -5.465415708384453e-09 7.891169024046041  -8.889254226817478 0.9185799790015028 8.096563451594164  -8.320874927176668 1.577238565883108 8.558304304769171  -7.621334633574476 1.997711580966202 9.115792586400277  -6.863379011720864 2.232572448329639 9.706713724973351  -6.078476140704361 2.309028693001206 10.30461933047813  -5.286683653055961 2.2347985644593 10.89364618729128  -4.50889485391773 2.001252254038061 11.45871768606202  -3.779747111091039 1.580377266149544 11.9764701166502  -3.180254021527036 0.919635757536394 12.39358512450844  9.435184835762074 -5.526442801781307e-16 8.821081167040482  9.703143450113481 -5.177919080989411e-16 9.759517793466097  9.937200675325906 -4.779633737078977e-16 10.70695790626853  10.12910341876892 -4.320797713022975e-16 11.6637899524176  10.26600480865004 -3.785108670599938e-16 12.62994894620973  10.32620016295587 -3.146209333354188e-16 13.60371185817688  10.26870906497679 -2.357846813887925e-16 14.5770457723685  10.00580515052717 -1.33532837240554e-16 15.51326561927512  10.00580515052715 -1.335328372405468e-16 -15.51326561927517  10.26870906497678 -2.357846813887823e-16 -14.57704577236862  10.32620016295587 -3.14620933335407e-16 -13.60371185817704  10.26600480865006 -3.785108670599807e-16 -12.62994894620994  10.12910341876897 -4.320797713022828e-16 -11.66378995241788  9.937200675325981 -4.779633737078828e-16 -10.70695790626886  9.703143450113588 -5.177919080989258e-16 -9.759517793466491  9.435184835762206 -5.526442801781154e-16 -8.821081167040916  -8.430884098799956 -1.336655841598856e-16 -16.42182348534589  -7.48769638746109 -2.359844337220147e-16 -16.18066913368463  -6.615222668164609 -3.148585424744291e-16 -15.74292694759924  -5.801300696653656 -3.787728356152977e-16 -15.20300575569049  -5.03236836252092 -4.323577802708782e-16 -14.60043301613841  -4.299051426214477 -4.782513724185397e-16 -13.95487352285605  -3.594975800611937 -5.180849754994398e-16 -13.27748885545357  -3.594975800611939 -5.180849754994396e-16 13.27748885545357  -4.299051426214471 -4.7825137241854e-16 13.95487352285604  -5.032368362520926 -4.32357780270878e-16 14.60043301613841  -5.801300696653643 -3.787728356152987e-16 15.20300575569047  -6.615222668164595 -3.148585424744302e-16 15.74292694759923  -7.487696387461072 -2.359844337220164e-16 16.18066913368462  -8.430884098799954 -1.33665584159886e-16 16.42182348534589  -75 -60.74998678227594 -5.413455946347426  -75 61.50907427704607 6.421476138283367  -75 -7.500000000000028 62.00961894323339  -75 7.5 -62.00961894323342  -75 -61.71300729890635 22.69138357274757  -75 22.5 62.00961894323342  -75 62.00961894323342 -22.5  -75 -22.5 -62.00961894323342  -75 -61.69123533526345 -37.19377007443569  -75 -37.81297757236224 62.15819488684329  -75 61.55555812566854 38.80088482059872  -75 36.89682048485673 -63.06116146554901  -75 -61.8617769373551 50.59895212827973  -75 52.43643946078686 62.29841932416252  -75 62.5575389
[...]
<PointData  Vectors="disp"> 
<DataArray  type="Float64"  Name="disp"  NumberOfComponents="3" format="ascii">0.0000000000000000e+00 0.0000000000000000e+00 0.0000000000000000e+00  0.0000000000000000e+00 0.0000000000000000e+00 0.0000000000000000e+00  0.0000000000000000e+00 0.0000000000000000e+00 0.0000000000000000e+00  0.0000000000000000e+00 0.0000000000000000e+00 0.0000000000000000e+00  0.0000000000000000e+00 0.0000000000000000e+00 0.0000000000000000e+00  0.0000000000000000e+00 0.0000000000000000e+00 0.0000000000000000e+00  0.0000000000000000e+00 0.0000000000000000e+00 0.0000000000000000e+00  0.0000000000000000e+00 0.0000000000000000e+00 0.0000000000000000e+00  -9.1389568221728090e-01 0.0000000000000000e+00 -7.8911690615859031e-01  -2.9156745795434724e-01 0.0000000000000000e+00 -1.2575234236652630e+00  -9.1389568221727535e-01 0.0000000000000000e+00 7.8911690615864583e-01  -2.9156745795434752e-01 0.0000000000000000e+00 1.2575234236652619e+00  -7.9602041944577967e-17 0.0000000000000000e+00 1.3000000000000000e+00  -7.9602041944577967e-17 0.0000000000000000e+00 -1.3000000000000000e+00  2.9156745795434724e-01 0.0000000000000000e+00 1.2575234236652619e+00  2.9156745795434758e-01 0.0000000000000000e+00 -1.2575234236652633e+00  -9.3750000000000000e-01 0.0000000000000000e+00 -1.6237976320958230e+00  -9.3750000000000000e-01 0.0000000000000000e+00 1.6237976320958230e+00  9.3750000000000000e-01 0.0000000000000000e+00 1.6237976320958230e+00  9.3750000000000000e-01 0.0000000000000000e+00 -1.6237976320958230e+00  0.0000000000000000e+00 0.0000000000000000e+00 0.0000000000000000e+00  0.0000000000000000e+00 0.0000000000000000e+00 0.0000000000000000e+00  0.0000000000000000e+00 0.0000000000000000e+00 0.0000000000000000e+00  0.0000000000000000e+00 0.0000000000000000e+00 0.0000000000000000e+00  0.0000000000000000e+00 0.0000000000000000e+00 0.0000000000000000e+00  0.0000000000000000e+00 0.0000000000000000e+00 0.0000000000000000e+00  0.0000000000000000e+00 0.0000000000000000e+00 0.0000000000000000e+00  0.0000000000000000e+00 0.0000000000000000e+00 0.0000000000000000e+00  0.0000000000000000e+00 0.0000000000000000e+00 0.0000000000000000e+00  0.0000000000000000e+00 0.0000000000000000e+00 0.0000000000000000e+00  0.0000000000000000e+00 0.0000000000000000e+00 0.0000000000000000e+00  0.0000000000000000e+00 0.0000000000000000e+00 0.0000000000000000e+00  0.0000000000000000e+00 0.0000000000000000e+00 0.0000000000000000e+00  0.0000000000000000e+00 0.0000000000000000e+00 0.0000000000000000e+00  0.0000000000000000e+00 0.0000000000000000e+00 0.0000000000000000e+00  0.0000000000000000e+00 0.0000000000000000e+00 0.0000000000000000e+00  0.0000000000000000e+00 0.0000000000000000e+00 0.0000000000000000e+00  0.0000000000000000e+00 0.0000000000000000e+00 0.0000000000000000e+00  0.0000000000000000e+00 0.0000000000000000e+00 0.0000000000000000e+00  0.0000000000000000e+00 0.0000000000000000e+00 0.0000000000000000e+00  0.0000000000000000e+00 0.0000000000000000e+00 0.0000000000000000e+00  0.0000000000000000e+00 0.0000000000000000e+00 0.0000000000000000e+00  0.0000000000000000e+00 0.0000000000000000e+00 0.0000000000000000e+00  0.0000000000000000e+00 0.0000000000000000e+00 0.0000000000000000e+00  0.0000000000000000e+00 0.0000000000000000e+00 0.0000000000000000e+00  0.0000000000000000e+00 0.0000000000000000e+00 0.0000000000000000e+00  0.0000000000000000e+00 0.0000000000000000e+00 0.0000000000000000e+00  0.0000000000000000e+00 0.0000000000000000e+00 0.0000000000000000e+00  0.0000000000000000e+00 0.0000000000000000e+00 0.0000000000000000e+00  0.0000000000000000e+00 0.0000000000000000e+00 0.0000000000000000e+00  0.0000000000000000e+00 0.0000000000000000e+00 0.0000000000000000e+00  0.0000000000000000e+00 0.0000000000000000e+00 0.0000000000000000e+00  0.0000000000000000e+00 0.0000000000000000e+00 0.0000000000000000e+00  0.0000000000000000e+00 0.0000000000000000e+00 0.0000000000000000e+00  0.0000000000000000e+00 0.0000000000000000e+00 0.0000000000000000e+00  0.0000000000000000e+00 0.0000000000000000e+00 0.0000000000000000e+00  0.0000000000000000e+00 0.0000000000000000e+00 0.0000000000000000e+00  0.0000000000000000e+00 0.0000000000000000e+00 0.0000000000000000e+00  0.0000000000000000e+00 0.0000000000000000e+00 0.0000000000000000e+00  0.0000000000000000e+00 0.0000000000000000e+00 0.0000000000000000e+00  0.0000000000000000e+00 0.0000000000000000e+00 0.0000000000000000e+00  0.0000000000000000e+00 0.0000000000000000e+00 0.0000000000000000e+00  0.0000000000000000e+00 0.0000000000000000e+00 0.0000000000000000e+00  0.0000000000000000e+00 0.0000000000000000e+00 0.0000000000000000e+00  0.0000000000000000e+00 0.0000000000000000e+00 0.0000000000000000e+00  0.0000000000000000e+00 0.0000000000000000e+00 0.0000000000000000e+00  0.0000000000000000e+00 0.0000000000000000e+00 0.0000000000000000e+00  0.0000000000000000e+00 0.0000000000000000e+00 0.0000000000000000e+00  0.0000000000000000e+00 0.0000000000000000e+00 0.0000000000000000e+00  0.0000000000000000e+00 0.0000000000000000e+00 0.0000000000000000e+00  0.0000000000000000e+00 0.0000000000000000e+00 0.0000000000000000e+00  0.0000000000000000e+00 0.0000000000000000e+00 0.0000000000000000e+00  0.0000000000000000e+00 0.0000000000000000e+00 0.0000000000000000e+00  0.0000000000000000e+00 0.0000000000000000e+00 0.0000000000000000e+00  0.0000000000000000e+00 0.0000000000000000e+00 0.0000000000000000e+00  0.0000000000000000e+00 0.0000000000000000e+00 0.0000000000000000e+00  0.0000000000000000e+00 0.0000000000000000e+00 0.0000000000000000e+00  0.0000000000000000e+00 0.0000000000000000e+00 0.0000000000000000e+00  0.0000000000000000e+00 0.0000000000000000e+00 0.0000000000000000e+00  0.0000000000000000e+00 0.0000000000000000e+00 0.0000000000000000e+00  0.0000000000000000e+00 0.0000000000000000e+00 0.0000000000000000e+00  0.0000000000000000e+00 0.0000000000000000e+00 0.0000000000000000e+00  0.0000000000000000e+00 0.0000000000000000e+00 0.0000000000000000e+00  0.0000000000000000e+00 0.0000000000000000e+00 0.0000000000000000e+00  0.0000000000000000e+00 0.0000000000000000e+00 0.0000000000000000e+00  0.0000000000000000e+00 0.0000000000000000e+00 0.0000000000000000e+00  0.0000000000000000e+00 0.0000000000000000e+00 0.0000000000000000e+00  0.0000000000000000e+00 0.0000000000000000e+00 0.0000000000000000e+00  0.0000000000000000e+00 0.0000000000000000e+00 0.0000000000000000e+00  0.0000000000000000e+00 0.0000000000000000e+00 0.0000000000000000e+00  0.0000000000000000e+00 0.0000000000000000e+00 0.0000000000000000e+00  0.0000000000000000e+00 0.0000000000000000e+00 0.0000000000000000e+00  0.0000000000000000e+00 0.0000000000000000e+00 0.0000000000000000e+00  0.0000000000000000e+00 0.0000000000000000e+00 0.0000000000000000e+00  0.0000000000000000e+00 0.0000000000000000e+00 0.0000000000000000e+00  0.0000000000000000e+00 0.0000000000000000e+00 0.0000000000000000e+00  0.0000000000000000e+00 0.0000000000000000e+00 0.0000000000000000e+00  0.0000000000000000e+00 0.0000000000000000e+00 0.0000000000000000e+00  0.0000000000000000e+00 0.0000000000000000e+00 0.0000000000000000e+00  0.0000000000000000e+00 0.0000000000000000e+00 0.0000000000000000e+00  0.0000000000000000e+00 0.0000000000000000e+00 0.0000000000000000e+00  0.0000000000000000e+00 0.0000000000000000e+00 0.0000000000000000e+00  0.0000000000000000e+00 0.0000000000000000e+00 0.0000000000000000e+00  0.0000000000000000e+00 0.0000000000000000e+00 0.0000000000000000e+00  0.0000000000000000e+00 0.0000000000000000e+00 0.0000000000000000e+00  0.0000000000000000e+00 0.0000000000000000e+00 0.0000000000000000e+00  0.0000000000000000e+00 0.0000000000000000e+00 0.0000000000000000e+00  0.0000000000000000e+00 0.0000000000000000e+00 0.0000000000000000e+00  0.0000000000000000e+00 0.0000000000000000e+00 0.0000000000000000e+00  0.0000000000000000e+00 0.0000000000000000e+00 0.0000000000000000e+00  0.0000000000000000e+00 0.0000000000000000e+00 0.0000000000000000e+00  0.0000000000000000e+00 0.0000000000000000e+00 0.0000000000000000e+00  0.0000000000000000e+00 0.0000000000000000e+00 0.0000000000000000e+00  0.0000000000000000e+00 0.0000000000000000e+00 0.0000000000000000e+00  0.0000000000000000e+00 0.0000000000000000e+00 0.0000000000000000e+00  0.0000000000000000e+00 0.0000000000000000e+00 0.0000000000000000e+00  0.0000000000000000e+00 0.0000000000000000e+00 0.0000000000000000e+00  0.0000000000000000e+00 0.0000000000000000e+00 0.0000000000000000e+00  0.0000000000000000e+00 0.0000000000000000e+00 0.0000000000000000e+00  0.0000000000000000e+00 0.0000000000000000e+00 0.0000000000000000e+00  0.0000000000000000e+00 0.0000000000000000e+00 0.0000000000000000e+00  0.0000000000000000e+00 0.0000000000000000e+00 0.0000000000000000e+00  0.0000000000000000e+00 0.0000000000000000e+00 0.0000000000000000e+00  0.0000000000000000e+00 0.0000000000000000e+00 0.0000000000000000e+00  0.0000000000000000e+00 0.0000000000000000e+00 0.0000000000000000e+00  0.0000000000000000e+00 0.0000000000000000e+00 0.0000000000000000e+00  0.0000000000000000e+00 0.0000000000000000e+00 0.0000000000000000e+00  0.0000000000000000e+00 0.0000000000000000e+00 0.0000000000000000e+00  -8.8892542244869055e-01 0.0000000000000000e+00 -8.0965634532457031e-01  -8.3208749259322023e-01 0.0000000000000000e+00 -8.5583043037349282e-01  -7.6213346524095671e-01 0.0000000000000000e+00 -9.1157925720743982e-01  -6.8633789837371606e-01 0.0000000000000000e+00 -9.7067137463894682e-01  -6.0784761191256553e-01 0.0000000000000000e+00 -1.0304619348674200e+00  -5.2866836327814948e-01 0.0000000000000000e+00 -1.0893646201682061e+00  -4.5088948433469467e-01 0.0000000000000000e+00 -1.1458717696843481e+00  -3.7797471298541524e-01 0.0000000000000000e+00 -1.1976470103963408e+00  -3.1802540558751335e-01 0.0000000000000000e+00 -1.2393585101277260e+00  -9.6583622306073524e-01 0.0000000000000000e+00 7.0564885716929460e-01  -1.0114712608919010e+00 0.0000000000000000e+00 6.1857189717020866e-01  -1.0507066296618361e+00 0.0000000000000000e+00 5.2842908573821745e-01  -1.0834757073592021e+00 0.0000000000000000e+00 4.3573882826517807e-01  -1.1097326293968581e+00 0.0000000000000000e+00 3.4099709262160499e-01  -1.1294468447005570e+00 0.0000000000000000e+00 2.4468057838551030e-01  -1.1425989260010132e+00 0.0000000000000000e+00 1.4725055064358952e-01  -1.1491775549993029e+00 0.0000000000000000e+00 4.9156980708685523e-02  -1.1491775549993053e+00 0.0000000000000000e+00 -4.9156980708635313e-02  -1.1425989260010181e+00 0.0000000000000000e+00 -1.4725055064353920e-01  -1.1294468447005652e+00 0.0000000000000000e+00 -2.4468057838546051e-01  -1.1097326293968701e+00 0.0000000000000000e+00 -3.4099709262155620e-01  -1.0834757073592183e+00 0.0000000000000000e+00 -4.3573882826512816e-01  -1.0507066296618550e+00 0.0000000000000000e+00 -5.2842908573816871e-01  -1.0114712608919230e+00 0.0000000000000000e+00 -6.1857189717016292e-01  -9.6583622306076067e-01 0.0000000000000000e+00 -7.0564885716924941e-01  -3.1802540636109577e-01 0.0000000000000000e+00 1.2393585095944073e+00  -3.7797471285170392e-01 0.0000000000000000e+00 1.1976470104853711e+00  -4.5088948412667995e-01 0.0000000000000000e+00 1.1458717696203322e+00  -5.2866836419741337e-01 0.0000000000000000e+00 1.0893646195203059e+00  -6.0784761068598425e-01 0.0000000000000000e+00 1.0304619357820739e+00  -6.8633789774546938e-01 0.0000000000000000e+00 9.7067137512409163e-01  -7.6213346307226348e-01 0.0000000000000000e+00 9.1157925891729485e-01  -8.3208749390631964e-01 0.0000000000000000e+00 8.5583042933666198e-01  -8.8892542278019149e-01 0.0000000000000000e+00 8.0965634497083949e-01  -9.8402087353911233e-02 0.0000000000000000e+00 1.2952321406563991e+00  -1.9588695969181935e-01 0.0000000000000000e+00 1.2810017421539301e+00  -8.8892542333451330e-01 0.0000000000000000e+00 8.0965634462683578e-01  -8.3208749503969970e-01 0.0000000000000000e+00 8.5583042849752711e-01  -7.6213346557625994e-01 0.0000000000000000e+00 9.1157925694088182e-01  -6.8633789840665338e-01 0.0000000000000000e+00 9.7067137461242914e-01  -6.0784761204514837e-01 0.0000000000000000e+00 1.0304619347427291e+00  -5.2866836462307998e-01 0.0000000000000000e+00 1.0893646192083071e+00  -4.5088948421052971e-01 0.0000000000000000e+00 1.1458717697280218e+00  -3.7797471263338689e-01 0.0000000000000000e+00 1.1976470104438730e+00  -3.1802540672004759e-01 0.0000000000000000e+00 1.2393585093464310e+00  -3.1802540560198683e-01 0.0000000000000000e+00 -1.2393585101165012e+00  -3.7797471281684886e-01 0.0000000000000000e+00 -1.1976470105101360e+00  -4.5088948522567718e-01 0.0000000000000000e+00 -1.1458717689544931e+00  -5.2866836337271117e-01 0.0000000000000000e+00 -1.0893646201228331e+00  -6.0784761123427222e-01 0.0000000000000000e+00 -1.0304619353679501e+00  -6.8633789816247726e-01 0.0000000000000000e+00 -9.7067137480232246e-01  -7.6213346049854302e-01 0.0000000000000000e+00 -9.1157926094700981e-01  -8.3208749340474153e-01 0.0000000000000000e+00 -8.5583042974328072e-01  -8.8892542228556393e-01 0.0000000000000000e+00 -8.0965634537023767e-01  -1.9588695969181907e-01 0.0000000000000000e+00 -1.2810017421539301e+00  -9.8402087353911816e-02 0.0000000000000000e+00 -1.2952321406563991e+00  3.1802540211443586e-01 0.0000000000000000e+00 1.2393585124726512e+00  3.7797471114685138e-01 0.0000000000000000e+00 1.1976470116412230e+00  4.5088948534940432e-01 0.0000000000000000e+00 1.1458717686367950e+00  5.2866836529872829e-01 0.0000000000000000e+00 1.0893646187341741e+00  6.0784761343593474e-01 0.0000000000000000e+00 1.0304619334565039e+00  6.8633790099261605e-01 0.0000000000000000e+00 9.7067137262748948e-01  7.6213346394362846e-01 0.0000000000000000e+00 9.1157925830456132e-01  8.3208749265356041e-01 0.0000000000000000e+00 8.5583043053240015e-01  8.8892542328416679e-01 0.0000000000000000e+00 8.0965634466519298e-01  9.1389568733712945e-01 0.0000000000000000e+00 7.8911690249689648e-01  8.8892542433398747e-01 0.0000000000000000e+00 8.0965634380413387e-01  8.3208749288210082e-01 0.0000000000000000e+00 8.5583043034405271e-01  7.6213346350081912e-01 0.0000000000000000e+00 9.1157925853312138e-01  6.8633790137147188e-01 0.0000000000000000e+00 9.7067137234320888e-01  6.0784761414651745e-01 0.0000000000000000e+00 1.0304619330007321e+00  5.2866836559509467e-01 0.0000000000000000e+00 1.0893646185164150e+00  4.5088948641130089e-01 0.0000000000000000e+00 1.1458717678764470e+00  3.7797471096625540e-01 0.0000000000000000e+00 1.1976470117737019e+00  3.1802540399714069e-01 0.0000000000000000e+00 1.2393585111759851e+00  3.1802540184678096e-01 0.0000000000000000e+00 -1.2393585126522382e+00  3.7797471089392409e-01 0.0000000000000000e+00 -1.1976470118235860e+00  4.5088948514333527e-01 0.0000000000000000e+00 -1.1458717687859381e+00  5.2866836533245709e-01 0.0000000000000000e+00 -1.0893646187093140e+00  6.0784761205972226e-01 0.0000000000000000e+00 -1.0304619344872090e+00  6.8633790092037872e-01 0.0000000000000000e+00 -9.7067137268387715e-01  7.6213346416321270e-01 0.0000000000000000e+00 -9.1157925819495145e-01  8.3208749264297011e-01 0.0000000000000000e+00 -8.5583043054025787e-01  8.8892542313586731e-01 0.0000000000000000e+00 -8.0965634478503590e-01  9.1389568746123273e-01 0.0000000000000000e+00 -7.8911690240460419e-01  8.8892542268174779e-01 0.0000000000000000e+00 -8.0965634515941642e-01  8.3208749271766680e-01 0.0000000000000000e+00 -8.5583043047691720e-01  7.6213346335744758e-01 0.0000000000000000e+00 -9.1157925864002776e-01  6.8633790117208648e-01 0.0000000000000000e+00 -9.7067137249733515e-01  6.0784761407043619e-01 0.0000000000000000e+00 -1.0304619330478131e+00  5.2866836530559602e-01 0.0000000000000000e+00 -1.0893646187291282e+00  4.5088948539177304e-01 0.0000000000000000e+00 -1.1458717686062021e+00  3.7797471110910386e-01 0.0000000000000000e+00 -1.1976470116650202e+00  3.1802540215270364e-01 0.0000000000000000e+00 -1.2393585124508442e+00  -9.4351848357620760e-01 0.0000000000000000e+00 -8.8210811670404832e-01  -9.7031434501134817e-01 0.0000000000000000e+00 -9.7595177934660982e-01  -9.9372006753259046e-01 0.0000000000000000e+00 -1.0706957906268531e+00  -1.0129103418768921e+00 0.0000000000000000e+00 -1.1663789952417600e+00  -1.0266004808650040e+00 0.0000000000000000e+00 -1.2629948946209728e+00  -1.0326200162955870e+00 0.0000000000000000e+00 -1.3603711858176879e+00  -1.0268709064976791e+00 0.0000000000000000e+00 -1.4577045772368502e+00  -1.0005805150527172e+00 0.0000000000000000e+00 -1.5513265619275123e+00  -1.0005805150527149e+00 0.0000000000000000e+00 1.5513265619275172e+00  -1.0268709064976782e+00 0.0000000000000000e+00 1.4577045772368622e+00  -1.0326200162955870e+00 0.0000000000000000e+00 1.3603711858177039e+00  -1.0266004808650060e+00 0.0000000000000000e+00 1.2629948946209937e+00  -1.0129103418768972e+00 0.0000000000000000e+00 1.1663789952417880e+00  -9.9372006753259823e-01 0.0000000000000000e+00 1.0706957906268861e+00  -9.7031434501135883e-01 0.0000000000000000e+00 9.7595177934664923e-01  -9.4351848357622070e-01 0.0000000000000000e+00 8.8210811670409173e-01  8.4308840987999578e-01 0.0000000000000000e+00 1.6421823485345888e+00  7.4876963874610913e-01 0.0000000000000000e+00 1.6180669133684633e+00  6.6152226681646087e-01 0.0000000000000000e+00 1.5742926947599243e+00  5.8013006966536551e-01 0.0000000000000000e+00 1.5203005755690491e+00  5.0323683625209215e-01 0.0000000000000000e+00 1.4600433016138410e+00  4.2990514262144758e-01 0.0000000000000000e+00 1.3954873522856051e+00  3.5949758006119364e-01 0.0000000000000000e+00 1.3277488855453570e+00  3.5949758006119392e-01 0.0000000000000000e+00 -1.3277488855453570e+00  4.2990514262144724e-01 0.0000000000000000e+00 -1.3954873522856042e+00  5.0323683625209248e-01 0.0000000000000000e+00 -1.4600433016138410e+00  5.8013006966536440e-01 0.0000000000000000e+00 -1.5203005755690471e+00  6.6152226681645943e-01 0.0000000000000000e+00 -1.5742926947599232e+00  7.4876963874610736e-01 0.0000000000000000e+00 -1.6180669133684620e+00  8.4308840987999534e-01 0.0000000000000000e+00 -1.6421823485345890e+00  0.0000000000000000e+00 0.0000000000000000e+00 0.0000000000000000e+00  0.0000000000000000e+00 0.0000000000000000e+00 0.0000000000000000e+00  0.0000000000000000e+00 0.0000000000000000e+00 0.0000000000000000e+00  0.0000000000000000e+00 0.0000000000000000e+00 0.0000000000000000e+00  0.0000000000000000e+00 0.0000000000000000e+00 0.0000000000000000e+00  0.0000000000000000e+00 0.0000000000000000e+00 0.0000000000000000e+00  0.0000000000000000e+00 0.0000000000000000e+00 0.0000000000000000e+00  0.0000000000000000e+00 0.0000000000000000e+00 0.0000000000000000e+00  0.0000000000000000e+00 0.0000000000000000e+00 0.0000000000000000e+00  0.0000000000000000e+00 0.0000000000000000e+00 0.0000000000000000e+00  0.0000000000000000e+00 0.0000000000000000e+00 0.0000000000000000e+00  0.0000000000000000e+00 0.0000000000000000e+00 0.0000000000000000e+00  0.0000000000000000e+00 0.0000000000000000e+00 0.0000000000000000e+00  0.0000000000000000e+00 0.0000000000000000e+00 0.0000000000000000e+00  0.0000000000000000e+00 0.0000000000000000e+00 0.0000000000000000e+00  0.0000000000000000e+00 0.0000000000000000e+00 0.0000000000000000e+00  0.0000000000000000e+00 0.0000000000000000e+00 0.0000000000000000e+00  0.0000000000000000e+00 0.0000000000000000e+00 0.0000000000000000e+00  0.0000000000000000e+00 0.0000000000000000e+00 0.0000000000000000e+00  0.0000000000000000e+00 0.0000000000000000e+00 0.0000000000000000e+00  0.0000000000000000e+00 0.0000000000000000e+00 0.0000000000000000e+00  0.0000000000000000e+00 0.0000000000000000e+00 0.0000000000000000e+00  0.0000000000000000e+00 0.0000000000000000e+00 0.0000000000000000e+00  0.0000000000000000e+00 0.0000000000000000e+00 0.0000000000000000e+00  0.0000000000000000e+00 0.0000000000000000e+00 0.0000000000000000e+00  0.0000000000000000e+00 0.0000000000000000e+00 0.0000000000000000e+00  0.0000000000000000e+00 0.0000000000000000e+00 0.0000000000000000e+00  0.0000000000000000e+00 0.0000000000000000e+00 0.0000000000000000e+00  0.0000000000000000e+00 0.0000000000000000e+00 0.0000000000000000e+00  0.0000000000000000e+00 0.0000000000000000e+00 0.0000000000000000e+00  0.00