<?xml version="1.0"?>
<VTKFile type="UnstructuredGrid"  version="0.1"  >
<UnstructuredGrid>
<Piece  NumberOfPoints="5585" NumberOfCells="25799">
<Points>
<DataArray  type="Float64"  NumberOfComponents="3"  format="ascii">-75 -75 75  -75 -75 -75  -75 75 75  -75 75 -75  75 -75 -75  75 -75 75  75 75 75  75 75 -75  3.778869748198866 -5.835027891489943e-16 12.27811129328121  3.778869748198874 -5.835027891489956e-16 -12.2781112932812  3.061616997868383e-16 -4.499279347985573e-32 18.75  3.061616997868383e-16 -4.499279347985573e-32 -18.75  -75 -75 -60  -75 -75 -45  -75 -75 -30  -75 -75 -15  -75 -75 0  -75 -75 15  -75 -75 30  -75 -75 45  -75 -75 60  -75 -60 75  -75 -45 75  -75 -30 75  -75 -15 75  -75 0 75  -75 15 75  -75 30 75  -75 45 75  -75 60 75  -75 75 -60  -75 75 -45  -75 75 -30  -75 75 -15  -75 75 0  -75 75 15  -75 75 30  -75 75 45  -75 75 60  -75 -60 -75  -75 -45 -75  -75 -30 -75  -75 -15 -75  -75 0 -75  -75 15 -75  -75 30 -75  -75 45 -75  -75 60 -75  -60 -75 -75  -45 -75 -75  -30 -75 -75  -15 -75 -75  0 -75 -75  15 -75 -75  30 -75 -75  45 -75 -75  60 -75 -75  75 -75 -60  75 -75 -45  75 -75 -30  75 -75 -15  75 -75 0  75 -75 15  75 -75 30  75 -75 45  75 -75 60  -60 -75 75  -45 -75 75  -30 -75 75  -15 -75 75  0 -75 75  15 -75 75  30 -75 75  45 -75 75  60 -75 75  -60 75 75  -45 75 75  -30 75 75  -15 75 75  0 75 75  15 75 75  30 75 75  45 75 75  60 75 75  75 -60 75  75 -45 75  75 -30 75  75 -15 75  75 0 75  75 15 75  75 30 75  75 45 75  75 60 75  -60 75 -75  -45 75 -75  -30 75 -75  -15 75 -75  0 75 -75  15 75 -75  30 75 -75  45 75 -75  60 75 -75  75 75 -60  75 75 -45  75 75 -30  75 75 -15  75 75 0  75 75 15  75 75 30  75 75 45  75 75 60  75 -60 -75  75 -45 -75  75 -30 -75  75 -15 -75  75 0 -75  75 15 -75  75 30 -75  75 45 -75  75 60 -75  3.467537477015872 -0.8933953594734931 12.30039225688133  2.759449398066768 -1.535606448302544 12.34382256919717  1.891999331628308 -1.945656033519167 12.38343205445371  0.9586685190237033 -2.174135648480527 12.40948144893689  -2.117559153112097e-08 -2.247667770299923 12.41846687965073  -0.9586685869166981 -2.174135642246393 12.40948144762869  -1.891999341278946 -1.945656052438111 12.38343207502974  -2.759449412951361 -1.535606477351242 12.34382256628498  -3.467537460567202 -0.8933953088231263 12.30039226312599  -3.778869792942868 5.953260445837371e-09 12.27811129730909  -3.467537456247248 0.8933953188007194 12.30039226349206  -2.759449402488924 1.535606456790124 12.34382256663526  -1.891999337562036 1.945656065095456 12.38343207489717  -0.9586685867705831 2.174135642493558 12.40948144762411  -2.156325673054182e-08 2.247667769058928 12.41846687970115  0.9586685193317259 2.174135648272838 12.40948144893635  1.891999332117844 1.945656033972754 12.38343205428687  2.759449398324429 1.535606448360559 12.3438225691112  3.467537477728643 0.8933953601027987 12.30039225669557  4.684754323437702 -7.583041276716827e-16 -11.87242201677786  5.549940667758809 -8.983486915502079e-16 -11.38590605601917  6.368569760786205 -1.030857202651656e-15 -10.82454430955639  7.135760114965131 -1.1550395123564e-15 -10.19467475107331  7.847545537363399 -1.270253627453276e-15 -9.502783954870678  8.500779912549186 -1.375990297690644e-15 -8.755342612398946  9.093024314326392 -1.471854742963955e-15 -7.958687084979377  9.622429885129593 -1.557547695429787e-15 -7.118943277115798  10.08762647960234 -1.632847374647254e-15 -6.241985318267695  10.48762203217859 -1.697593198574753e-15 -5.333422465508872  10.82171591175046 -1.75167175860547e-15 -4.398606531869848  11.08942668126901 -1.79500512627695e-15 -3.44265480256009  11.29043441422589 -1.827541516249964e-15 -2.470482583338041  11.42453620759126 -1.849248085349731e-15 -1.486842972025373  11.49161406082727 -1.860105733258767e-15 -0.4963706525059722  11.49161406082727 -1.860105733258767e-15 0.4963706525058911  11.42453620759127 -1.849248085349732e-15 1.486842972025302  11.29043441422591 -1.827541516249967e-15 2.470482583337958  11.08942668126901 -1.795005126276951e-15 3.442654802560048  10.82171591175046 -1.751671758605472e-15 4.39860653186983  10.48762203217859 -1.697593198574752e-15 5.333422465508876  10.08762647960232 -1.632847374647251e-15 6.241985318267731  9.622429885129575 -1.557547695429785e-15 7.118943277115819  9.093024314326383 -1.471854742963954e-15 7.958687084979391  8.500779912549167 -1.375990297690641e-15 8.755342612398968  7.847545537363395 -1.270253627453276e-15 9.502783954870681  7.135760114965126 -1.155039512356399e-15 10.19467475107332  6.3685697607862 -1.030857202651655e-15 10.82454430955639  5.549940667758793 -8.983486915502059e-16 11.38590605601917  4.684754323437698 -7.583041276716821e-16 11.87242201677786  3.46753747716137 0.8933953590079985 -12.30039225689372  2.759449398895928 1.535606447738558 -12.34382256916418  1.891999332918961 1.94565603309408 -12.38343205442774  0.958668519812753 2.174135648337233 -12.40948144892283  -2.317133062073456e-08 2.247667770397531 -12.41846687964497  -0.9586685806852075 2.174135643245653 -12.40948144774495  -1.891999340364387 1.945656052754818 -12.38343207506387  -2.759449412366918 1.535606478444751 -12.34382256632819  -3.467537459452158 0.8933953093907054 -12.30039226322389  -3.778869793305155 -4.99014281437303e-09 -12.27811129731906  -3.467537456045034 -0.8933953194865807 -12.30039226349074  -2.759449402149198 -1.535606456894923 -12.34382256665474  -1.891999341166054 -1.945656059680098 -12.38343207481511  -0.9586685949938756 -2.174135640941924 -12.40948144747762  -1.662361823195901e-08 -2.247667768463053 -12.41846687970885  0.9586685196000462 -2.174135648401172 -12.40948144892558  1.891999331541356 -1.945656033539932 -12.38343205441945  2.759449397765677 -1.535606448543019 -12.34382256919757  3.467537477183935 -0.8933953596018362 -12.30039225683946  3.541668763629819 -5.204751978023307e-16 13.23520644192032  3.270339869180662 -4.806013503499285e-16 14.18317082961059  2.957500011128313 -4.34627150652786e-16 15.11821868421427  2.591984550264239 -3.809118699504591e-16 16.03387745626055  2.155720139635511 -3.167994922634537e-16 16.91780848489104  1.616909245803981 -2.376171278862728e-16 17.74253542063105  0.9169434122120165 -1.347518177717638e-16 18.4320090556317  0.9169434122120222 -1.347518177717646e-16 -18.4320090556317  1.616909245803979 -2.376171278862725e-16 -17.74253542063105  2.155720139635513 -3.167994922634539e-16 -16.91780848489103  2.591984550264237 -3.809118699504588e-16 -16.03387745626056  2.957500011128314 -4.346271506527863e-16 -15.11821868421426  3.270339869180666 -4.806013503499292e-16 -14.18317082961057  3.541668763629824 -5.204751978023313e-16 -13.2352064419203  -75 -60.74998678227594 -5.413455946347426  -75 61.50907427704607 6.421476138283367  -75 -7.500000000000028 62.00961894323339  -75 7.5 -62.00961894323342  -75 -61.71300729890635 22.69138357274757  -75 22.5 62.00961894323342  -75 62.00961894323342 -22.5  -75 -22.5 -62.00961894323342  -75 -61.69123533526345 -37.19377007443569  -75 -37.81297757236224 62.15819488684329  -75 61.55555812566854 38.80088482059872  -75 36.89682048485673 -63.06116146554901  -75 -61.8617769373551 50.59895212827973  -75 52.43643946078686 62.29841932416252  -75 62.55753893776773 -52.41101524510159  -75 -51.68339181158553 -60.67570757846403  -75 7.499999999999986 62.00961894323339  -75 -4.263256414560601e-14 49.01923788646684  -75 -14.89032811082181 49.08255698120644  -75 -7.372049462625455 36.10272910689648  -75 7.521325089562325 36.04116887589964  -75 0.02487927115602417 23.05283982683295  -75 -14.87357000914056 23.38396559881194  -75 -7.47478178966422 10.1080703627967  -75 7.508349580248506 10.06048466625522  -75 0.005594631763898406 -2.930225407813197  -75 15.00166002523943 -2.939375521209698  -75 -15.0000000000002 -2.942286340599438  -75 -7.499067561372897 -15.93065724190166  -75 -22.49984459356236 -15.93233237145526  -75 22.49999999999983 10.04809471616706  -75 30.00027667087308 -2.941801204034562  -75 22.50032278268527 -15.93210140470696  -75 -29.99997409892722 -2.942230502947609  -75 -14.99981869248943 -28.92265759057008  -75 -29.9999713678618 -28.9229867288372  -75 0.0001856243560780513 -28.92264828429482  -75 -7.500000000000313 -41.91342951089919  -75 37.08924740778036 10.28535031461668  -75 29.93154123462985 23.07801837267527  -75 37.23086202245943 -15.77704764293443  -75 29.95519746752396 -28.89701749628422  -75 44.40917396271716 22.98083521826123  -75 36.95502393536609 35.77463813597433  -75 7.499999999999673 -41.91342951089925  -75 47.18540537260324 -29.51249923573116  -75 37.34603163781514 -41.77770414839027  -75 46.96555139691444 -1.862982746252769  -75 15.00355418159366 49.02128989416674  -75 22.49999999999977 -41.91342951089926  -75 7.501449250445248 -15.92967605234318  -75 14.99285918750167 -28.91805037657127  -75 -22.50000000000035 -41.91342951089915  -75 -37.21636144111822 -41.74196933477168  -75 -47.14360734872791 -29.46664815900601  -75 -37.50000000000028 -15.93266739736594  -75 -45.0000000000002 -2.942286340599296  -75 -37.50870921622847 10.31556869839858  -75 -52.47945466058451 9.441084889992254  -75 -45.7485354069844 23.28307627838103  -75 -53.71886464532696 36.23511359644581  -75 -38.46001423469239 36.66056870324702  -75 -30.15546625532943 23.35000756552392  -75 -46.70857307950239 49.36738862378702  -75 61.92760747168484 -7.850179358091623  -75 -62.00961894323342 -22.5  -75 37.48940657679779 62.05775234005495  -75 47.25145112991386 47.74814336348328  -75 62.07675513402967 -37.40391908013879  -75 59.6283489365845 22.74228313853121  -75 -36.8850172563118 -62.76806249597166  -75 -7.5 -62.00961894323342  -75 22.5 -62.00961894323342  -75 -22.50208356154835 10.21218256366402  -75 -22.5338842805307 62.04493478295831  -75 -30.0975177852475 49.08895658255608  -75 14.99999999999983 23.03847577293367  -75 30.28323930394518 48.77338325110215  -75 22.44911395751615 35.95449571712528  -75 -22.24988821155249 36.34211800948268  -75 -63.01622611762248 -51.97730985283301  -75 62.51250118488849 52.63110876075615  -75 51.61400847913646 -60.92184840345482  -75 -5
[...]
<PointData  Vectors="disp"> 
<DataArray  type="Float64"  Name="disp"  NumberOfComponents="3" format="ascii">0.0000000000000000e+00 0.0000000000000000e+00 0.0000000000000000e+00  0.0000000000000000e+00 0.0000000000000000e+00 0.0000000000000000e+00  0.0000000000000000e+00 0.0000000000000000e+00 0.0000000000000000e+00  0.0000000000000000e+00 0.0000000000000000e+00 0.0000000000000000e+00  0.0000000000000000e+00 0.0000000000000000e+00 0.0000000000000000e+00  0.0000000000000000e+00 0.0000000000000000e+00 0.0000000000000000e+00  0.0000000000000000e+00 0.0000000000000000e+00 0.0000000000000000e+00  0.0000000000000000e+00 0.0000000000000000e+00 0.0000000000000000e+00  -7.5577394963977329e-01 -5.8350278914899429e-17 -2.4556222586562422e+00  -7.5577394963977496e-01 -5.8350278914899565e-17 2.4556222586562400e+00  -2.2962127484012875e-16 -4.4992793479855728e-33 -3.7500000000000000e+00  -2.2962127484012875e-16 -4.4992793479855728e-33 3.7500000000000000e+00  0.0000000000000000e+00 0.0000000000000000e+00 0.0000000000000000e+00  0.0000000000000000e+00 0.0000000000000000e+00 0.0000000000000000e+00  0.0000000000000000e+00 0.0000000000000000e+00 0.0000000000000000e+00  0.0000000000000000e+00 0.0000000000000000e+00 0.0000000000000000e+00  0.0000000000000000e+00 0.0000000000000000e+00 0.0000000000000000e+00  0.0000000000000000e+00 0.0000000000000000e+00 0.0000000000000000e+00  0.0000000000000000e+00 0.0000000000000000e+00 0.0000000000000000e+00  0.0000000000000000e+00 0.0000000000000000e+00 0.0000000000000000e+00  0.0000000000000000e+00 0.0000000000000000e+00 0.0000000000000000e+00  0.0000000000000000e+00 0.0000000000000000e+00 0.0000000000000000e+00  0.0000000000000000e+00 0.0000000000000000e+00 0.0000000000000000e+00  0.0000000000000000e+00 0.0000000000000000e+00 0.0000000000000000e+00  0.0000000000000000e+00 0.0000000000000000e+00 0.0000000000000000e+00  0.0000000000000000e+00 0.0000000000000000e+00 0.0000000000000000e+00  0.0000000000000000e+00 0.0000000000000000e+00 0.0000000000000000e+00  0.0000000000000000e+00 0.0000000000000000e+00 0.0000000000000000e+00  0.0000000000000000e+00 0.0000000000000000e+00 0.0000000000000000e+00  0.0000000000000000e+00 0.0000000000000000e+00 0.0000000000000000e+00  0.0000000000000000e+00 0.0000000000000000e+00 0.0000000000000000e+00  0.0000000000000000e+00 0.0000000000000000e+00 0.0000000000000000e+00  0.0000000000000000e+00 0.0000000000000000e+00 0.0000000000000000e+00  0.0000000000000000e+00 0.0000000000000000e+00 0.0000000000000000e+00  0.0000000000000000e+00 0.0000000000000000e+00 0.0000000000000000e+00  0.0000000000000000e+00 0.0000000000000000e+00 0.0000000000000000e+00  0.0000000000000000e+00 0.0000000000000000e+00 0.0000000000000000e+00  0.0000000000000000e+00 0.0000000000000000e+00 0.0000000000000000e+00  0.0000000000000000e+00 0.0000000000000000e+00 0.0000000000000000e+00  0.0000000000000000e+00 0.0000000000000000e+00 0.0000000000000000e+00  0.0000000000000000e+00 0.0000000000000000e+00 0.0000000000000000e+00  0.0000000000000000e+00 0.0000000000000000e+00 0.0000000000000000e+00  0.0000000000000000e+00 0.0000000000000000e+00 0.0000000000000000e+00  0.0000000000000000e+00 0.0000000000000000e+00 0.0000000000000000e+00  0.0000000000000000e+00 0.0000000000000000e+00 0.0000000000000000e+00  0.0000000000000000e+00 0.0000000000000000e+00 0.0000000000000000e+00  0.0000000000000000e+00 0.0000000000000000e+00 0.0000000000000000e+00  0.0000000000000000e+00 0.0000000000000000e+00 0.0000000000000000e+00  0.0000000000000000e+00 0.0000000000000000e+00 0.0000000000000000e+00  0.0000000000000000e+00 0.0000000000000000e+00 0.0000000000000000e+00  0.0000000000000000e+00 0.0000000000000000e+00 0.0000000000000000e+00  0.0000000000000000e+00 0.0000000000000000e+00 0.0000000000000000e+00  0.0000000000000000e+00 0.0000000000000000e+00 0.0000000000000000e+00  0.0000000000000000e+00 0.0000000000000000e+00 0.0000000000000000e+00  0.0000000000000000e+00 0.0000000000000000e+00 0.0000000000000000e+00  0.0000000000000000e+00 0.0000000000000000e+00 0.0000000000000000e+00  0.0000000000000000e+00 0.0000000000000000e+00 0.0000000000000000e+00  0.0000000000000000e+00 0.0000000000000000e+00 0.0000000000000000e+00  0.0000000000000000e+00 0.0000000000000000e+00 0.0000000000000000e+00  0.0000000000000000e+00 0.0000000000000000e+00 0.0000000000000000e+00  0.0000000000000000e+00 0.0000000000000000e+00 0.0000000000000000e+00  0.0000000000000000e+00 0.0000000000000000e+00 0.0000000000000000e+00  0.0000000000000000e+00 0.0000000000000000e+00 0.0000000000000000e+00  0.0000000000000000e+00 0.0000000000000000e+00 0.0000000000000000e+00  0.0000000000000000e+00 0.0000000000000000e+00 0.0000000000000000e+00  0.0000000000000000e+00 0.0000000000000000e+00 0.0000000000000000e+00  0.0000000000000000e+00 0.0000000000000000e+00 0.0000000000000000e+00  0.0000000000000000e+00 0.0000000000000000e+00 0.0000000000000000e+00  0.0000000000000000e+00 0.0000000000000000e+00 0.0000000000000000e+00  0.0000000000000000e+00 0.0000000000000000e+00 0.0000000000000000e+00  0.0000000000000000e+00 0.0000000000000000e+00 0.0000000000000000e+00  0.0000000000000000e+00 0.0000000000000000e+00 0.0000000000000000e+00  0.0000000000000000e+00 0.0000000000000000e+00 0.0000000000000000e+00  0.0000000000000000e+00 0.0000000000000000e+00 0.0000000000000000e+00  0.0000000000000000e+00 0.0000000000000000e+00 0.0000000000000000e+00  0.0000000000000000e+00 0.0000000000000000e+00 0.0000000000000000e+00  0.0000000000000000e+00 0.0000000000000000e+00 0.0000000000000000e+00  0.0000000000000000e+00 0.0000000000000000e+00 0.0000000000000000e+00  0.0000000000000000e+00 0.0000000000000000e+00 0.0000000000000000e+00  0.0000000000000000e+00 0.0000000000000000e+00 0.0000000000000000e+00  0.0000000000000000e+00 0.0000000000000000e+00 0.0000000000000000e+00  0.0000000000000000e+00 0.0000000000000000e+00 0.0000000000000000e+00  0.0000000000000000e+00 0.0000000000000000e+00 0.0000000000000000e+00  0.0000000000000000e+00 0.0000000000000000e+00 0.0000000000000000e+00  0.0000000000000000e+00 0.0000000000000000e+00 0.0000000000000000e+00  0.0000000000000000e+00 0.0000000000000000e+00 0.0000000000000000e+00  0.0000000000000000e+00 0.0000000000000000e+00 0.0000000000000000e+00  0.0000000000000000e+00 0.0000000000000000e+00 0.0000000000000000e+00  0.0000000000000000e+00 0.0000000000000000e+00 0.0000000000000000e+00  0.0000000000000000e+00 0.0000000000000000e+00 0.0000000000000000e+00  0.0000000000000000e+00 0.0000000000000000e+00 0.0000000000000000e+00  0.0000000000000000e+00 0.0000000000000000e+00 0.0000000000000000e+00  0.0000000000000000e+00 0.0000000000000000e+00 0.0000000000000000e+00  0.0000000000000000e+00 0.0000000000000000e+00 0.0000000000000000e+00  0.0000000000000000e+00 0.0000000000000000e+00 0.0000000000000000e+00  0.0000000000000000e+00 0.0000000000000000e+00 0.0000000000000000e+00  0.0000000000000000e+00 0.0000000000000000e+00 0.0000000000000000e+00  0.0000000000000000e+00 0.0000000000000000e+00 0.0000000000000000e+00  0.0000000000000000e+00 0.0000000000000000e+00 0.0000000000000000e+00  0.0000000000000000e+00 0.0000000000000000e+00 0.0000000000000000e+00  0.0000000000000000e+00 0.0000000000000000e+00 0.0000000000000000e+00  0.0000000000000000e+00 0.0000000000000000e+00 0.0000000000000000e+00  0.0000000000000000e+00 0.0000000000000000e+00 0.0000000000000000e+00  0.0000000000000000e+00 0.0000000000000000e+00 0.0000000000000000e+00  0.0000000000000000e+00 0.0000000000000000e+00 0.0000000000000000e+00  0.0000000000000000e+00 0.0000000000000000e+00 0.0000000000000000e+00  0.0000000000000000e+00 0.0000000000000000e+00 0.0000000000000000e+00  0.0000000000000000e+00 0.0000000000000000e+00 0.0000000000000000e+00  0.0000000000000000e+00 0.0000000000000000e+00 0.0000000000000000e+00  0.0000000000000000e+00 0.0000000000000000e+00 0.0000000000000000e+00  0.0000000000000000e+00 0.0000000000000000e+00 0.0000000000000000e+00  0.0000000000000000e+00 0.0000000000000000e+00 0.0000000000000000e+00  0.0000000000000000e+00 0.0000000000000000e+00 0.0000000000000000e+00  0.0000000000000000e+00 0.0000000000000000e+00 0.0000000000000000e+00  0.0000000000000000e+00 0.0000000000000000e+00 0.0000000000000000e+00  0.0000000000000000e+00 0.0000000000000000e+00 0.0000000000000000e+00  0.0000000000000000e+00 0.0000000000000000e+00 0.0000000000000000e+00  0.0000000000000000e+00 0.0000000000000000e+00 0.0000000000000000e+00  0.0000000000000000e+00 0.0000000000000000e+00 0.0000000000000000e+00  0.0000000000000000e+00 0.0000000000000000e+00 0.0000000000000000e+00  -6.9350749540317425e-01 -8.9339535947349322e-02 -2.4600784513762664e+00  -5.5188987961335367e-01 -1.5356064483025442e-01 -2.4687645138394343e+00  -3.7839986632566153e-01 -1.9456560335191672e-01 -2.4766864108907423e+00  -1.9173370380474070e-01 -2.1741356484805274e-01 -2.4818962897873780e+00  4.2351184958387721e-09 -2.2476677702999229e-01 -2.4836933759301463e+00  1.9173371738333969e-01 -2.1741356422463931e-01 -2.4818962895257375e+00  3.7839986825578947e-01 -1.9456560524381111e-01 -2.4766864150059482e+00  5.5188988259027227e-01 -1.5356064773512421e-01 -2.4687645132569958e+00  6.9350749211344054e-01 -8.9339530882312640e-02 -2.4600784526251980e+00  7.5577395858857377e-01 5.9532604458373708e-10 -2.4556222594618182e+00  6.9350749124944988e-01 8.9339531880071946e-02 -2.4600784526984123e+00  5.5188988049778498e-01 1.5356064567901240e-01 -2.4687645133270522e+00  3.7839986751240740e-01 1.9456560650954560e-01 -2.4766864149794343e+00  1.9173371735411684e-01 2.1741356424935582e-01 -2.4818962895248222e+00  4.3126514724142223e-09 2.2476677690589281e-01 -2.4836933759402302e+00  -1.9173370386634511e-01 2.1741356482728380e-01 -2.4818962897872705e+00  -3.7839986642356860e-01 1.9456560339727541e-01 -2.4766864108573738e+00  -5.5188987966488556e-01 1.5356064483605592e-01 -2.4687645138222405e+00  -6.9350749554572877e-01 8.9339536010279885e-02 -2.4600784513391143e+00  -9.3695086468754041e-01 -7.5830412767168272e-17 2.3744844033555723e+00  -1.1099881335517618e+00 -8.9834869155020795e-17 2.2771812112038341e+00  -1.2737139521572409e+00 -1.0308572026516561e-16 2.1649088619112780e+00  -1.4271520229930261e+00 -1.1550395123564000e-16 2.0389349502146619e+00  -1.5695091074726801e+00 -1.2702536274532759e-16 1.9005567909741357e+00  -1.7001559825098373e+00 -1.3759902976906441e-16 1.7510685224797895e+00  -1.8186048628652787e+00 -1.4718547429639549e-16 1.5917374169958753e+00  -1.9244859770259186e+00 -1.5575476954297871e-16 1.4237886554231596e+00  -2.0175252959204686e+00 -1.6328473746472539e-16 1.2483970636535391e+00  -2.0975244064357184e+00 -1.6975931985747531e-16 1.0666844931017745e+00  -2.1643431823500916e+00 -1.7516717586054702e-16 8.7972130637396950e-01  -2.2178853362538020e+00 -1.7950051262769502e-16 6.8853096051201790e-01  -2.2580868828451783e+00 -1.8275415162499642e-16 4.9409651666760823e-01  -2.2849072415182516e+00 -1.8492480853497311e-16 2.9736859440507463e-01  -2.2983228121654542e+00 -1.8601057332587673e-16 9.9274130501194449e-02  -2.2983228121654542e+00 -1.8601057332587673e-16 -9.9274130501178226e-02  -2.2849072415182543e+00 -1.8492480853497323e-16 -2.9736859440506036e-01  -2.2580868828451823e+00 -1.8275415162499670e-16 -4.9409651666759169e-01  -2.2178853362538020e+00 -1.7950051262769510e-16 -6.8853096051200957e-01  -2.1643431823500920e+00 -1.7516717586054722e-16 -8.7972130637396584e-01  -2.0975244064357184e+00 -1.6975931985747521e-16 -1.0666844931017754e+00  -2.0175252959204641e+00 -1.6328473746472510e-16 -1.2483970636535464e+00  -1.9244859770259153e+00 -1.5575476954297851e-16 -1.4237886554231638e+00  -1.8186048628652769e+00 -1.4718547429639539e-16 -1.5917374169958780e+00  -1.7001559825098334e+00 -1.3759902976906411e-16 -1.7510685224797935e+00  -1.5695091074726790e+00 -1.2702536274532759e-16 -1.9005567909741363e+00  -1.4271520229930252e+00 -1.1550395123563990e-16 -2.0389349502146641e+00  -1.2737139521572403e+00 -1.0308572026516551e-16 -2.1649088619112780e+00  -1.1099881335517587e+00 -8.9834869155020598e-17 -2.2771812112038345e+00  -9.3695086468753974e-01 -7.5830412767168223e-17 -2.3744844033555719e+00  -6.9350749543227419e-01 8.9339535900799849e-02 2.4600784513787439e+00  -5.5188987977918547e-01 1.5356064477385581e-01 2.4687645138328360e+00  -3.7839986658379199e-01 1.9456560330940800e-01 2.4766864108855482e+00  -1.9173370396255074e-01 2.1741356483372332e-01 2.4818962897845660e+00  4.6342659667911261e-09 2.2476677703975312e-01 2.4836933759289943e+00  1.9173371613704177e-01 2.1741356432456529e-01 2.4818962895489896e+00  3.7839986807287734e-01 1.9456560527548181e-01 2.4766864150127739e+00  5.5188988247338355e-01 1.5356064784447510e-01 2.4687645132656382e+00  6.9350749189043137e-01 8.9339530939070544e-02 2.4600784526447783e+00  7.5577395866103114e-01 -4.9901428143730309e-10 2.4556222594638117e+00  6.9350749120900679e-01 -8.9339531948658069e-02 2.4600784526981485e+00  5.5188988042983966e-01 -1.5356064568949232e-01 2.4687645133309482e+00  3.7839986823321059e-01 -1.9456560596800981e-01 2.4766864149630221e+00  1.9173371899877525e-01 -2.1741356409419244e-01 2.4818962894955243e+00  3.3247236908986711e-09 -2.2476677684630531e-01 2.4836933759417703e+00  -1.9173370392000907e-01 -2.1741356484011720e-01 2.4818962897851162e+00  -3.7839986630827110e-01 -1.9456560335399320e-01 2.4766864108838900e+00  -5.5188987955313518e-01 -1.5356064485430190e-01 2.4687645138395142e+00  -6.9350749543678680e-01 -8.9339535960183625e-02 2.4600784513678922e+00  -7.0833375272596388e-01 -5.2047519780233070e-17 -2.6470412883840644e+00  -6.5406797383613213e-01 -4.8060135034992846e-17 -2.8366341659221184e+00  -5.9150000222566257e-01 -4.3462715065278603e-17 -3.0236437368428537e+00  -5.1839691005284771e-01 -3.8091186995045915e-17 -3.2067754912521109e+00  -4.3114402792710232e-01 -3.1679949226345369e-17 -3.3835616969782083e+00  -3.2338184916079582e-01 -2.3761712788627285e-17 -3.5485070841262103e+00  -1.8338868244240297e-01 -1.3475181777176381e-17 -3.6864018111263399e+00  -1.8338868244240461e-01 -1.3475181777176460e-17 3.6864018111263399e+00  -3.2338184916079582e-01 -2.3761712788627254e-17 3.5485070841262103e+00  -4.3114402792710277e-01 -3.1679949226345388e-17 3.3835616969782061e+00  -5.1839691005284716e-01 -3.8091186995045884e-17 3.2067754912521123e+00  -5.9150000222566290e-01 -4.3462715065278634e-17 3.0236437368428519e+00  -6.5406797383613302e-01 -4.8060135034992926e-17 2.8366341659221139e+00  -7.0833375272596444e-01 -5.2047519780233138e-17 2.6470412883840599e+00  0.0000000000000000e+00 0.0000000000000000e+00 0.0000000000000000e+00  0.0000000000000000e+00 0.0000000000000000e+00 0.0000000000000000e+00  0.0000000000000000e+00 0.0000000000000000e+00 0.0000000000000000e+00  0.0000000000000000e+00 0.0000000000000000e+00 0.0000000000000000e+00  0.0000000000000000e+00 0.0000000000000000e+00 0.0000000000000000e+00  0.0000000000000000e+00 0.0000000000000000e+00 0.0000000000000000e+00  0.0000000000000000e+00 0.0000000000000000e+00 0.0000000000000000e+00  0.0000000000000000e+00 0.0000000000000000e+00 0.0000000000000000e+00  0.0000000000000000e+00 0.0000000000000000e+00 0.0000000000000000e+00  0.0000000000000000e+00 0.0000000000000000e+00 0.0000000000000000e+00  0.0000000000000000e+00 0.0000000000000000e+00 0.0000000000000000e+00  0.0000000000000000e+00 0.0000000000000000e+00 0.0000000000000000e+00  0.0000000000000000e+00 0.0000000000000000e+00 0.0000000000000000e+00  0.0000000000000000e+00 0.0000000000000000e+00 0.0000000000000000e+00  0.0000000000000000e+00 0.0000000000000000e+00 0.0000000000000000e+00  0.0000000000000000e+00 0.0000000000000000e+00 0.0000000000000000e+00  0.0000000000000000e+00 0.0000000000000000e+00 0.0000000000000000e+00  0.0000000000000000e+00 0.0000000000000000e+00 0.0000000000000000e+00  0.0000000000000000e+00 0.0000000000000000e+00 0.0000000000000000e+00  0.0000000000000000e+00 0.0000000000000000e+00 0.0000000000000000e+00  0.0000000000000000e+00 0.0000000000000000e+00 0.0000000000000000e+00  0.0000000000000000e+00 0.0000000000000000e+00 0.0000000000000000e+00  0.0000000000000000e+00 0.0000000000000000e+00 0.0000000000000000e+00  0.0000000000000000e+00 0.0000000000000000e+00 0.0000000000000000e+00  0.0000000000000000e+00 0.0000000000000000e+00 0.0000000000000000e+00  0.0000000000000000e+00 0.0000000000000000e+00 0.0000000000000000e+00  0.0000000000000000e+00 0.0000000000000000e+00 0.0000000000000000e+00  0.0000000000000000e+00 0.0000000000000000e+00 0.0000000000000000e+00  0.0000000000000000e+00 0.0000000000000000e+00 0.0000000000000000e+00  0.0000000000000000e+00 0.0000000000000000e+00 0.0000000000000000e+00  0.0000000000000000e+00 0.0000000000000000e+00 0.0000000000000000e+00  0.0000000000000000e+00 0.0000000000000000e+00 0.0000000000000000e+00  0.0000000000000000e+00 0.0000000000000000e+00 0.0000000000000000e+00  0.0000000000000000e+00 0.0000000000000000e+00 0.0000000000000000e+00  0.0000000000000000e+00 0.0000000000000000e+00 0.0000000000000000e+00  0.0000000000000000e+00 0.0000000000000000e+00 0.0000000000000000e+00  0.0000000000000000e+00 0.0000000000000000e+00 0.0000000000000000e+00  0.0000000000000000e+00 0.0000000000000000e+00 0.0000000000000000e+00  0.0000000000000000e+00 0.0000000000000000e+00 0.0000000000000000e+00  0.0000000000000000e+00 0.0000000000000000e+00 0.0000000000000000e+00  0.0000000000000000e+00 0.0000000000000000e+00 0.0000000000000000e+00  0.0000000000000000e+00 0.0000000000000000e+00 0.0000000000000000e+00  0.0000000000000000e+00 0.0000000000000000e+00 0.0000000000000000e+00  0.0000000000000000e+00 0.0000000000000000e+00 0.0000000000000000e+00  0.0000000000000000e+00 0.0000000000000000e+00 0.0000000000000000e+00  0.0000000000000000e+00 0.0000000000000000e+00 0.0000000000000000e+00  0.0000000000000000e+00 0.0000000000000000e+00 0.0000000000000000e+00  0.0000000000000000e+00 0.0000000000000000e+00 0.0000000000000000e+00  0.0000000000000000e+00 0.0000000000000000e+00 0.0000000000000000e+00  0.0000000000000000e+00 0.0000000000000000e+00 0.0000000000000000e+00  0.0000000000000000e+00 0.0000000000000000e+00 0.0000000000000000e+00  0.0000000000000000e+00 0.0000000000000000e+00 0.0000000000000000e+00  0.0000000000000000e+00 0.0000000000000000e+00 0.0000000000000000e+00  0.0000000000000000e+00 0.0000000000000000e+00 0.0000000000000000e+00  0.0000000000000000e+00 0.0000000000000000e+00 0.0000000000000000e+00  0.0000000000000000e+00 0.0000000000000000e+00 0.0000000000000000e+00  0.0000000000000000e+00 0.0000000000000000e+00 0.0000000000000000e+00  0.0000000000000000e+00 0.0000000000000000e+00 0.0000000000000000e+00  0.0000000000000000e+00 0.0000000000000000e+00 0.0000000000000000e+00  0.0000000000000000e+00 0.0000000000000000e+00 0.0000000000000000e+00  0.0000000000000000e+00 0.0000000000000000e+00 0.0000000000000000e+00  0.0000000000000000e+00 0.0000000000000000e+00 0.0000000000000000e+00  0.0000000000000000e+00 0.0000000000000000e+00 0.0000000000000000e+00  0.0000000000000000e+00 0.0000000000000000e+00 0.0000000000000000e+00  0.0000000000000000e+00 0.0000000000000000e+00 0.0000000000000000e+00  0.0000000000000000e+00 0.0000000000000000e+00 0.0000000000000000e+00  0.0000000000000000e+00 0.0000000000000000e+00 0.0000000000000000e+00  0.0000000000000000e+00 0.0000000000000000e+00 0.0000000000000000e+00  0.0000000000000000e+00 0.0000000000000000e+00 0.0000000000000000e+00  0.0000000000000000e+00 0.0000000000000000e+00 0.0000000000000000e+00  0.0000000000000000e+00 0.0000000000000000e+00 0.0000000000000000e+00  0.0000000000000000e+00 0.0000000000000000e+00 0.0000000000000000e+00  0.0000000000000000e+00 0.0000000000000000e+00 0.0000000000000000e+00  0.0000000000000000e+00 0.0000000000000000e+00 0.0000000000000000e+00  0.0000000000000000e+00 0.0000000000000000e+00 0.0000000000000000e+00  0.0000000000000000e+00 0.0000000000000000e+00 0.0000000000000000e+00  0.0000000000000000e+00 0.0000000000000000e+00 0.0000000000000000e+00  0.0000000000000000e+00 0.0000000000000000e+00 0.0000000000000000e+00  0.0000000000000000e+00 0.0000000000000000e+00 0.0000000000000000e+00  0.0000000000000000e+00 0.0000000000000000e+00 0.