<?xml version="1.0"?>
<VTKFile type="UnstructuredGrid"  version="0.1"  >
<UnstructuredGrid>
<Piece  NumberOfPoints="7298" NumberOfCells="34010">
<Points>
<DataArray  type="Float64"  NumberOfComponents="3"  format="ascii">-75 -75 75  -75 -75 -75  -75 75 75  -75 75 -75  75 -75 -75  75 -75 75  75 75 75  75 75 -75  4.055737291186726 -6.262544567965079e-16 17.54525066493886  4.055737291186723 -6.262544567965074e-16 -17.54525066493887  3.061616997868383e-16 -4.499279347985573e-32 30  3.061616997868383e-16 -4.499279347985573e-32 -30  -75 -75 -60  -75 -75 -45  -75 -75 -30  -75 -75 -15  -75 -75 0  -75 -75 15  -75 -75 30  -75 -75 45  -75 -75 60  -75 -60 75  -75 -45 75  -75 -30 75  -75 -15 75  -75 0 75  -75 15 75  -75 30 75  -75 45 75  -75 60 75  -75 75 -60  -75 75 -45  -75 75 -30  -75 75 -15  -75 75 0  -75 75 15  -75 75 30  -75 75 45  -75 75 60  -75 -60 -75  -75 -45 -75  -75 -30 -75  -75 -15 -75  -75 0 -75  -75 15 -75  -75 30 -75  -75 45 -75  -75 60 -75  -60 -75 -75  -45 -75 -75  -30 -75 -75  -15 -75 -75  0 -75 -75  15 -75 -75  30 -75 -75  45 -75 -75  60 -75 -75  75 -75 -60  75 -75 -45  75 -75 -30  75 -75 -15  75 -75 0  75 -75 15  75 -75 30  75 -75 45  75 -75 60  -60 -75 75  -45 -75 75  -30 -75 75  -15 -75 75  0 -75 75  15 -75 75  30 -75 75  45 -75 75  60 -75 75  -60 75 75  -45 75 75  -30 75 75  -15 75 75  0 75 75  15 75 75  30 75 75  45 75 75  60 75 75  75 -60 75  75 -45 75  75 -30 75  75 -15 75  75 0 75  75 15 75  75 30 75  75 45 75  75 60 75  -60 75 -75  -45 75 -75  -30 75 -75  -15 75 -75  0 75 -75  15 75 -75  30 75 -75  45 75 -75  60 75 -75  75 75 -60  75 75 -45  75 75 -30  75 75 -15  75 75 0  75 75 15  75 75 30  75 75 45  75 75 60  75 -60 -75  75 -45 -75  75 -30 -75  75 -15 -75  75 0 -75  75 15 -75  75 30 -75  75 45 -75  75 60 -75  3.750444858129283 -0.9198296286075827 17.57900003839817  3.045149872341337 -1.596148308869023 17.64667953930983  2.17116473516826 -2.041138258230338 17.7108159324404  1.224157006774032 -2.303865113581895 17.75591125821845  0.2462128328307653 -2.412115213632536 17.77604107528703  -0.7372854327501457 -2.376306713196765 17.76928250019314  -1.703520374364768 -2.193067169398739 17.73624263772079  -2.621266175210401 -1.844024547361398 17.68049882423686  -3.429065262664077 -1.290447456527213 17.61161407693685  -3.973806813392803 -0.4832795271294224 17.55457353403254  -3.973806815301083 0.4832795182902375 17.55457353374259  -3.429065263789756 1.290447455622696 17.6116140767735  -2.62126619139812 1.844024537317705 17.68049882308878  -1.703520365227966 2.193067171895178 17.73624263821224  -0.7372854401990372 2.376306711924944 17.76928250004901  0.2462128369914906 2.412115211365803 17.77604107529164  1.224157005790212 2.303865113606919 17.75591125825824  2.171164655829374 2.041138289987352 17.71081593722802  3.045149868989221 1.596148311304787 17.6466795395163  3.750444859108165 0.9198296281042978 17.57900003812324  4.871887684534713 -7.88594723580842e-16 -16.98430341089539  5.63114104520043 -9.114923010399146e-16 -16.34833066441991  6.33362612481006 -1.025201003507125e-15 -15.65006610392481  6.980849360485948 -1.129964672475341e-15 -14.9002242391541  7.575027295579173 -1.226142091747565e-15 -14.1076389413959  8.118657214201491 -1.314137487611701e-15 -13.27952898439738  8.614260267393483 -1.394358949608538e-15 -12.42178602615772  9.064240530037559 -1.467195616587352e-15 -11.53923369983112  9.470813205096309 -1.533006055387339e-15 -10.63584700275817  9.835974351643209 -1.592113360824147e-15 -9.714930096718682  10.16149430699992 -1.644804090955189e-15 -8.779256736304079  10.44892302398332 -1.691329131000395e-15 -7.831181704251011  10.699601399903 -1.731905527125783e-15 -6.87272837854771  10.91467465619828 -1.7667186521566e-15 -5.905658310298939  11.0951058204313 -1.795924387858468e-15 -4.931526695383845  11.24168811741308 -1.819651130643843e-15 -3.951727358143938  11.35505573752235 -1.838001534600585e-15 -2.96752979748519  11.43569274599031 -1.851053953605448e-15 -1.980110128688211  11.48393998429514 -1.858863558427684e-15 -0.9905779443640219  11.5 -1.861463134703976e-15 -1.958570405145239e-14  11.48393998429514 -1.858863558427685e-15 0.9905779443639818  11.43569274599031 -1.851053953605448e-15 1.98011012868817  11.35505573752235 -1.838001534600585e-15 2.967529797485164  11.24168811741308 -1.819651130643844e-15 3.951727358143915  11.09510582043131 -1.79592438785847e-15 4.931526695383789  10.91467465619829 -1.766718652156601e-15 5.905658310298914  10.69960139990301 -1.731905527125784e-15 6.872728378547682  10.44892302398333 -1.691329131000397e-15 7.831181704250969  10.16149430699994 -1.644804090955193e-15 8.77925673630401  9.835974351643225 -1.592113360824149e-15 9.714930096718648  9.470813205096317 -1.53300605538734e-15 10.63584700275815  9.064240530037583 -1.467195616587356e-15 11.53923369983108  8.614260267393494 -1.39435894960854e-15 12.4217860261577  8.118657214201496 -1.314137487611702e-15 13.27952898439737  7.575027295579178 -1.226142091747566e-15 14.10763894139589  6.980849360485959 -1.129964672475343e-15 14.90022423915408  6.333626124810092 -1.02520100350713e-15 15.65006610392477  5.631141045200453 -9.114923010399184e-16 16.34833066441988  4.871887684534728 -7.885947235808445e-16 16.98430341089538  3.750444858381972 0.9198296295827527 -17.57900003811665  3.045149867861572 1.596148312148853 -17.64667953957303  2.17116465101994 2.041138292221047 -17.71081593750854  1.224157000780024 2.303865114498127 -17.75591125843218  0.2462128291511196 2.412115212823865 -17.77604107531514  -0.7372854467153753 2.376306711472316 -17.76928249990733  -1.703520378050488 2.193067167529707 -17.73624263762015  -2.62126615968084 1.844024555335502 -17.68049882537996  -3.429065252654885 1.290447465723085 -17.61161407792228  -3.973806808213772 0.4832795371684521 -17.55457353450831  -3.973806818626246 -0.483279508884931 -17.55457353309081  -3.429065272672691 -1.290447447197501 -17.61161407591602  -2.621266203278995 -1.844024531349489 -17.68049882221166  -1.703520379817153 -2.193067167825639 -17.73624263751861  -0.7372854457162727 -2.376306711301805 -17.7692824999362  0.2462128285317968 -2.412115211924294 -17.77604107534271  1.224157000998517 -2.303865114481058 -17.75591125842373  2.17116465048084 -2.04113829222482 -17.71081593754749  3.045149868568004 -1.59614831163241 -17.6466795395314  3.750444858310289 -0.9198296294857249 -17.57900003816387  3.93544223578836 -5.783432084745023e-16 18.50520463858295  3.80482225953116 -5.591476081751322e-16 19.4638072493935  3.662843610803931 -5.382827644498041e-16 20.42079235927298  3.508222661659142 -5.155600383956491e-16 21.37581472655404  3.339335719188654 -4.907408159739372e-16 22.32841531241814  3.154081762701586 -4.635163361929847e-16 23.27796504059058  2.949664288975379 -4.33475631606354e-16 24.22356912109282  2.722226435690786 -4.000519069227636e-16 25.16389072424503  2.466195231171315 -3.624261715111702e-16 26.09681434472267  2.17300410315758 -3.193395023359196e-16 27.01869563905281  1.828296093204163 -2.686820350123307e-16 27.92246411477107  1.404740971271314 -2.06437384091827e-16 28.79168805281729  0.839751956549141 -1.234079454798759e-16 29.57386345158488  0.8397519565491386 -1.234079454798756e-16 -29.57386345158488  1.404740971271307 -2.064373840918261e-16 -28.79168805281731  1.828296093204161 -2.686820350123304e-16 -27.92246411477108  2.173004103157578 -3.193395023359192e-16 -27.01869563905282  2.466195231171318 -3.624261715111705e-16 -26.09681434472266  2.722226435690784 -4.000519069227633e-16 -25.16389072424503  2.949664288975372 -4.334756316063531e-16 -24.22356912109284  3.154081762701584 -4.635163361929844e-16 -23.27796504059058  3.339335719188651 -4.907408159739369e-16 -22.32841531241815  3.50822266165914 -5.155600383956488e-16 -21.37581472655406  3.662843610803929 -5.382827644498037e-16 -20.42079235927299  3.80482225953116 -5.591476081751323e-16 -19.4638072493935  3.93544223578836 -5.783432084745022e-16 -18.50520463858296  -75 -60.74998678227594 -5.413455946347426  -75 61.50907427704607 6.421476138283367  -75 -7.500000000000028 62.00961894323339  -75 7.5 -62.00961894323342  -75 -61.71300729890635 22.69138357274757  -75 22.5 62.00961894323342  -75 62.00961894323342 -22.5  -75 -22.5 -62.00961894323342  -75 -61.69123533526345 -37.19377007443569  -75 -37.81297757236224 62.15819488684329  -75 61.55555812566854 38.80088482059872  -75 36.89682048485673 -63.06116146554901  -75 -61.8617769373551 50.59895212827973  -75 52.43643946078686 62.29841932416252  -75 62.55753893776773 -52.41101524510159  -75 -51.68339181158553 -60.67570757846403  -75 7.499999999999986 62.00961894323339  -75 -4.263256414560601e-14 49.01923788646684  -75 -14.89032811082181 49.08255698120644  -75 -7.372049462625455 36.10272910689648  -75 7.521325089562325 36.04116887589964  -75 0.02487927115602417 23.05283982683295  -75 -14.87357000914056 23.38396559881194  -75 -7.47478178966422 10.1080703627967  -75 7.508349580248506 10.06048466625522  -75 0.005594631763898406 -2.930225407813197  -75 15.00166002523943 -2.939375521209698  -75 -15.0000000000002 -2.942286340599438  -75 -7.499067561372897 -15.93065724190166  -75 -22.49984459356236 -15.93233237145526  -75 22.49999999999983 10.04809471616706  -75 30.00027667087308 -2.941801204034562  -75 22.50032278268527 -15.93210140470696  -75 -29.99997409892722 -2.942230502947609  -75 -14.99981869248943 -28.92265759057008  -75 -29.9999713678618 -28.9229867288372  -75 0.0001856243560780513 -28.92264828429482  -75 -7.500000000000313 -41.91342951089919  -75 37.08924740778036 10.28535031461668  -75 29.93154123462985 23.07801837267527  -75 37.23086202245943 -15.77704764293443  -75 29.95519746752396 -28.89701749628422  -75 44.40917396271716 22.98083521826123  -75 36.95502393536609 35.77463813597433  -75 7.499999999999673 -41.91342951089925  -75 47.18540537260324 -29.51249923573116  -75 37.34603163781514 -41.77770414839027  -75 46.96555139691444 -1.862982746252769  -75 15.00355418159366 49.02128989416674  -75 22.49999999999977 -41.91342951089926  -75 7.501449250445248 -15.92967
[...]
<PointData  Vectors="disp"> 
<DataArray  type="Float64"  Name="disp"  NumberOfComponents="3" format="ascii">0.0000000000000000e+00 0.0000000000000000e+00 0.0000000000000000e+00  0.0000000000000000e+00 0.0000000000000000e+00 0.0000000000000000e+00  0.0000000000000000e+00 0.0000000000000000e+00 0.0000000000000000e+00  0.0000000000000000e+00 0.0000000000000000e+00 0.0000000000000000e+00  0.0000000000000000e+00 0.0000000000000000e+00 0.0000000000000000e+00  0.0000000000000000e+00 0.0000000000000000e+00 0.0000000000000000e+00  0.0000000000000000e+00 0.0000000000000000e+00 0.0000000000000000e+00  0.0000000000000000e+00 0.0000000000000000e+00 0.0000000000000000e+00  5.2900921189392069e-01 -1.2360285331510025e-16 -3.2751134574552534e+00  5.2900921189392047e-01 -1.2360285331510015e-16 3.2751134574552556e+00  3.9934134754805000e-17 -8.8801566078662629e-33 -5.5999999999999996e+00  3.9934134754805000e-17 -8.8801566078662629e-33 5.5999999999999996e+00  0.0000000000000000e+00 0.0000000000000000e+00 0.0000000000000000e+00  0.0000000000000000e+00 0.0000000000000000e+00 0.0000000000000000e+00  0.0000000000000000e+00 0.0000000000000000e+00 0.0000000000000000e+00  0.0000000000000000e+00 0.0000000000000000e+00 0.0000000000000000e+00  0.0000000000000000e+00 0.0000000000000000e+00 0.0000000000000000e+00  0.0000000000000000e+00 0.0000000000000000e+00 0.0000000000000000e+00  0.0000000000000000e+00 0.0000000000000000e+00 0.0000000000000000e+00  0.0000000000000000e+00 0.0000000000000000e+00 0.0000000000000000e+00  0.0000000000000000e+00 0.0000000000000000e+00 0.0000000000000000e+00  0.0000000000000000e+00 0.0000000000000000e+00 0.0000000000000000e+00  0.0000000000000000e+00 0.0000000000000000e+00 0.0000000000000000e+00  0.0000000000000000e+00 0.0000000000000000e+00 0.0000000000000000e+00  0.0000000000000000e+00 0.0000000000000000e+00 0.0000000000000000e+00  0.0000000000000000e+00 0.0000000000000000e+00 0.0000000000000000e+00  0.0000000000000000e+00 0.0000000000000000e+00 0.0000000000000000e+00  0.0000000000000000e+00 0.0000000000000000e+00 0.0000000000000000e+00  0.0000000000000000e+00 0.0000000000000000e+00 0.0000000000000000e+00  0.0000000000000000e+00 0.0000000000000000e+00 0.0000000000000000e+00  0.0000000000000000e+00 0.0000000000000000e+00 0.0000000000000000e+00  0.0000000000000000e+00 0.0000000000000000e+00 0.0000000000000000e+00  0.0000000000000000e+00 0.0000000000000000e+00 0.0000000000000000e+00  0.0000000000000000e+00 0.0000000000000000e+00 0.0000000000000000e+00  0.0000000000000000e+00 0.0000000000000000e+00 0.0000000000000000e+00  0.0000000000000000e+00 0.0000000000000000e+00 0.0000000000000000e+00  0.0000000000000000e+00 0.0000000000000000e+00 0.0000000000000000e+00  0.0000000000000000e+00 0.0000000000000000e+00 0.0000000000000000e+00  0.0000000000000000e+00 0.0000000000000000e+00 0.0000000000000000e+00  0.0000000000000000e+00 0.0000000000000000e+00 0.0000000000000000e+00  0.0000000000000000e+00 0.0000000000000000e+00 0.0000000000000000e+00  0.0000000000000000e+00 0.0000000000000000e+00 0.0000000000000000e+00  0.0000000000000000e+00 0.0000000000000000e+00 0.0000000000000000e+00  0.0000000000000000e+00 0.0000000000000000e+00 0.0000000000000000e+00  0.0000000000000000e+00 0.0000000000000000e+00 0.0000000000000000e+00  0.0000000000000000e+00 0.0000000000000000e+00 0.0000000000000000e+00  0.0000000000000000e+00 0.0000000000000000e+00 0.0000000000000000e+00  0.0000000000000000e+00 0.0000000000000000e+00 0.0000000000000000e+00  0.0000000000000000e+00 0.0000000000000000e+00 0.0000000000000000e+00  0.0000000000000000e+00 0.0000000000000000e+00 0.0000000000000000e+00  0.0000000000000000e+00 0.0000000000000000e+00 0.0000000000000000e+00  0.0000000000000000e+00 0.0000000000000000e+00 0.0000000000000000e+00  0.0000000000000000e+00 0.0000000000000000e+00 0.0000000000000000e+00  0.0000000000000000e+00 0.0000000000000000e+00 0.0000000000000000e+00  0.0000000000000000e+00 0.0000000000000000e+00 0.0000000000000000e+00  0.0000000000000000e+00 0.0000000000000000e+00 0.0000000000000000e+00  0.0000000000000000e+00 0.0000000000000000e+00 0.0000000000000000e+00  0.0000000000000000e+00 0.0000000000000000e+00 0.0000000000000000e+00  0.0000000000000000e+00 0.0000000000000000e+00 0.0000000000000000e+00  0.0000000000000000e+00 0.0000000000000000e+00 0.0000000000000000e+00  0.0000000000000000e+00 0.0000000000000000e+00 0.0000000000000000e+00  0.0000000000000000e+00 0.0000000000000000e+00 0.0000000000000000e+00  0.0000000000000000e+00 0.0000000000000000e+00 0.0000000000000000e+00  0.0000000000000000e+00 0.0000000000000000e+00 0.0000000000000000e+00  0.0000000000000000e+00 0.0000000000000000e+00 0.0000000000000000e+00  0.0000000000000000e+00 0.0000000000000000e+00 0.0000000000000000e+00  0.0000000000000000e+00 0.0000000000000000e+00 0.0000000000000000e+00  0.0000000000000000e+00 0.0000000000000000e+00 0.0000000000000000e+00  0.0000000000000000e+00 0.0000000000000000e+00 0.0000000000000000e+00  0.0000000000000000e+00 0.0000000000000000e+00 0.0000000000000000e+00  0.0000000000000000e+00 0.0000000000000000e+00 0.0000000000000000e+00  0.0000000000000000e+00 0.0000000000000000e+00 0.0000000000000000e+00  0.0000000000000000e+00 0.0000000000000000e+00 0.0000000000000000e+00  0.0000000000000000e+00 0.0000000000000000e+00 0.0000000000000000e+00  0.0000000000000000e+00 0.0000000000000000e+00 0.0000000000000000e+00  0.0000000000000000e+00 0.0000000000000000e+00 0.0000000000000000e+00  0.0000000000000000e+00 0.0000000000000000e+00 0.0000000000000000e+00  0.0000000000000000e+00 0.0000000000000000e+00 0.0000000000000000e+00  0.0000000000000000e+00 0.0000000000000000e+00 0.0000000000000000e+00  0.0000000000000000e+00 0.0000000000000000e+00 0.0000000000000000e+00  0.0000000000000000e+00 0.0000000000000000e+00 0.0000000000000000e+00  0.0000000000000000e+00 0.0000000000000000e+00 0.0000000000000000e+00  0.0000000000000000e+00 0.0000000000000000e+00 0.0000000000000000e+00  0.0000000000000000e+00 0.0000000000000000e+00 0.0000000000000000e+00  0.0000000000000000e+00 0.0000000000000000e+00 0.0000000000000000e+00  0.0000000000000000e+00 0.0000000000000000e+00 0.0000000000000000e+00  0.0000000000000000e+00 0.0000000000000000e+00 0.0000000000000000e+00  0.0000000000000000e+00 0.0000000000000000e+00 0.0000000000000000e+00  0.0000000000000000e+00 0.0000000000000000e+00 0.0000000000000000e+00  0.0000000000000000e+00 0.0000000000000000e+00 0.0000000000000000e+00  0.0000000000000000e+00 0.0000000000000000e+00 0.0000000000000000e+00  0.0000000000000000e+00 0.0000000000000000e+00 0.0000000000000000e+00  0.0000000000000000e+00 0.0000000000000000e+00 0.0000000000000000e+00  0.0000000000000000e+00 0.0000000000000000e+00 0.0000000000000000e+00  0.0000000000000000e+00 0.0000000000000000e+00 0.0000000000000000e+00  0.0000000000000000e+00 0.0000000000000000e+00 0.0000000000000000e+00  0.0000000000000000e+00 0.0000000000000000e+00 0.0000000000000000e+00  0.0000000000000000e+00 0.0000000000000000e+00 0.0000000000000000e+00  0.0000000000000000e+00 0.0000000000000000e+00 0.0000000000000000e+00  0.0000000000000000e+00 0.0000000000000000e+00 0.0000000000000000e+00  0.0000000000000000e+00 0.0000000000000000e+00 0.0000000000000000e+00  0.0000000000000000e+00 0.0000000000000000e+00 0.0000000000000000e+00  0.0000000000000000e+00 0.0000000000000000e+00 0.0000000000000000e+00  0.0000000000000000e+00 0.0000000000000000e+00 0.0000000000000000e+00  0.0000000000000000e+00 0.0000000000000000e+00 0.0000000000000000e+00  0.0000000000000000e+00 0.0000000000000000e+00 0.0000000000000000e+00  0.0000000000000000e+00 0.0000000000000000e+00 0.0000000000000000e+00  0.0000000000000000e+00 0.0000000000000000e+00 0.0000000000000000e+00  0.0000000000000000e+00 0.0000000000000000e+00 0.0000000000000000e+00  0.0000000000000000e+00 0.0000000000000000e+00 0.0000000000000000e+00  0.0000000000000000e+00 0.0000000000000000e+00 0.0000000000000000e+00  0.0000000000000000e+00 0.0000000000000000e+00 0.0000000000000000e+00  0.0000000000000000e+00 0.0000000000000000e+00 0.0000000000000000e+00  0.0000000000000000e+00 0.0000000000000000e+00 0.0000000000000000e+00  0.0000000000000000e+00 0.0000000000000000e+00 0.0000000000000000e+00  0.0000000000000000e+00 0.0000000000000000e+00 0.0000000000000000e+00  0.0000000000000000e+00 0.0000000000000000e+00 0.0000000000000000e+00  0.0000000000000000e+00 0.0000000000000000e+00 0.0000000000000000e+00  0.0000000000000000e+00 0.0000000000000000e+00 0.0000000000000000e+00  0.0000000000000000e+00 0.0000000000000000e+00 0.0000000000000000e+00  4.8918845975599345e-01 -1.8154532143570709e-01 -3.2814133405009920e+00  3.9719346160973956e-01 -3.1502927148730714e-01 -3.2940468473378348e+00  2.8319540023933831e-01 -4.0285623517704039e-01 -3.3060189740555415e+00  1.5967265305748243e-01 -4.5471021978590037e-01 -3.3144367682007774e+00  3.2114717325751996e-02 -4.7607537111168480e-01 -3.3181943340535791e+00  -9.6167665141323341e-02 -4.6900790392041408e-01 -3.3169327333693857e+00  -2.2219830969975235e-01 -4.3284220448659322e-01 -3.3107652923745472e+00  -3.4190428372309578e-01 -3.6395221329501282e-01 -3.3003597805242140e+00  -4.4726938208661876e-01 -2.5469357694616052e-01 -3.2875012943615451e+00  -5.1832262783384386e-01 -9.5384117196596535e-02 -3.2768537263527406e+00  -5.1832262808274987e-01 9.5384115452020579e-02 -3.2768537262986168e+00  -4.4726938223344642e-01 2.5469357676763738e-01 -3.2875012943310535e+00  -3.4190428583453736e-01 3.6395221131270500e-01 -3.3003597803099054e+00  -2.2219830850799555e-01 4.3284220497931153e-01 -3.3107652924662845e+00  -9.6167666112917896e-02 4.6900790366939688e-01 -3.3169327333424818e+00  3.2114717868455295e-02 4.7607537066430328e-01 -3.3181943340544393e+00  1.5967265292915811e-01 4.5471021979083925e-01 -3.3144367682082052e+00  2.8319538989078791e-01 4.0285624144487214e-01 -3.3060189749492306e+00  3.9719346117250709e-01 3.1502927196805008e-01 -3.2940468473763760e+00  4.8918845988367371e-01 1.8154532133637458e-01 -3.2814133404496717e+00  6.3546361102626703e-01 -1.5564369544358724e-16 3.1704033033671393e+00  7.3449665806962128e-01 -1.7989979625787787e-16 3.0516883906917163e+00  8.2612514671435566e-01 -2.0234230332377466e-16 2.9213456727326315e+00  9.1054556875903669e-01 -2.2301934325171206e-16 2.7813751913087654e+00  9.8804703855380527e-01 -2.4200172863438782e-16 2.6334259357272343e+00  1.0589552888088902e+00 -2.5936924097599365e-16 2.4788454104208442e+00  1.1235991653121935e+00 -2.7520242426484304e-16 2.3187333915494412e+00  1.1822922430483771e+00 -2.8957808222118792e-16 2.1539902906351425e+00  1.2353234615343012e+00 -3.0256698461592222e-16 1.9853581071815252e+00  1.2829531763012880e+00 -3.1423290016266056e-16 1.8134536180541538e+00  1.3254123009130330e+00 -3.2463238637273470e-16 1.6387945907767616e+00  1.3629030031282594e+00 -3.3381496006586746e-16 1.4618205847935222e+00  1.3956001825960436e+00 -3.4182345930114139e-16 1.2829092973289058e+00  1.4236532160258626e+00 -3.4869447082038165e-16 1.1023895512558020e+00  1.4471877157084305e+00 -3.5445876076153981e-16 9.2055164980498427e-01  1.4663071457495322e+00 -3.5914167052181117e-16 7.3765577352020173e-01  1.4810942266333502e+00 -3.6276346077643134e-16 5.5393889553056885e-01  1.4916120973030842e+00 -3.6533959610633843e-16 3.6962055735513277e-01  1.4979052153428445e+00 -3.6688096547914818e-16 1.8490788294795077e-01  1.5000000000000000e+00 -3.6739403974420584e-16 3.6559980896044460e-15  1.4979052153428445e+00 -3.6688096547914838e-16 -1.8490788294794328e-01  1.4916120973030842e+00 -3.6533959610633843e-16 -3.6962055735512506e-01  1.4810942266333502e+00 -3.6276346077643134e-16 -5.5393889553056397e-01  1.4663071457495322e+00 -3.5914167052181132e-16 -7.3765577352019740e-01  1.4471877157084316e+00 -3.5445876076154016e-16 -9.2055164980497395e-01  1.4236532160258641e+00 -3.4869447082038180e-16 -1.1023895512557973e+00  1.3956001825960447e+00 -3.4182345930114159e-16 -1.2829092973289005e+00  1.3629030031282603e+00 -3.3381496006586785e-16 -1.4618205847935142e+00  1.3254123009130354e+00 -3.2463238637273549e-16 -1.6387945907767487e+00  1.2829531763012902e+00 -3.1423290016266100e-16 -1.8134536180541476e+00  1.2353234615343021e+00 -3.0256698461592237e-16 -1.9853581071815212e+00  1.1822922430483804e+00 -2.8957808222118871e-16 -2.1539902906351349e+00  1.1235991653121948e+00 -2.7520242426484344e-16 -2.3187333915494368e+00  1.0589552888088907e+00 -2.5936924097599380e-16 -2.4788454104208424e+00  9.8804703855380582e-01 -2.4200172863438802e-16 -2.6334259357272329e+00  9.1054556875903825e-01 -2.2301934325171245e-16 -2.7813751913087614e+00  8.2612514671435977e-01 -2.0234230332377567e-16 -2.9213456727326235e+00  7.3449665806962439e-01 -1.7989979625787864e-16 -3.0516883906917109e+00  6.3546361102626892e-01 -1.5564369544358773e-16 -3.1704033033671375e+00  4.8918845978895292e-01 1.8154532162817488e-01 3.2814133404484416e+00  3.9719346102542241e-01 3.1502927213464210e-01 3.2940468473869653e+00  2.8319538926347043e-01 4.0285624188573294e-01 3.3060189750015936e+00  1.5967265227565530e-01 4.5471021996673566e-01 3.3144367682406739e+00  3.2114716845798211e-02 4.7607537095207869e-01 3.3181943340588260e+00  -9.6167666962875042e-02 4.6900790358006245e-01 3.3169327333160350e+00  -2.2219831018049843e-01 4.3284220411770541e-01 3.3107652923557613e+00  -3.4190428169750087e-01 3.6395221486884904e-01 3.3003597807375926e+00  -4.4726938078107198e-01 2.5469357876113524e-01 3.2875012945454922e+00  -5.1832262715831801e-01 9.5384119177983978e-02 3.2768537264415514e+00  -5.1832262851646693e-01 -9.5384113595710057e-02 3.2768537261769515e+00  -4.4726938339209016e-01 -2.5469357510476992e-01 3.2875012941709900e+00  -3.4190428738421674e-01 -3.6395221013476758e-01 3.3003597801461768e+00  -2.2219831041093299e-01 -4.3284220417611297e-01 3.3107652923368072e+00  -9.6167666832557314e-02 -4.6900790354640892e-01 3.3169327333214240e+00  3.2114716765016975e-02 -4.7607537077453177e-01 3.3181943340639730e+00  1.5967265230415439e-01 -4.5471021996336675e-01 3.3144367682390961e+00  2.8319538919315301e-01 -4.0285624188647762e-01 3.3060189750088647e+00  3.9719346111756576e-01 -3.1502927203271253e-01 3.2940468473791951e+00  4.8918845977960290e-01 -1.8154532160902465e-01 3.2814133404572554e+00  5.1331855249413394e-01 -1.1414668588312547e-16 -3.4543048658688176e+00  4.9628116428667296e-01 -1.1035808056088136e-16 -3.6332440198867864e+00  4.7776221010486059e-01 -1.0624001929930344e-16 -3.8118812403976228e+00  4.5759426021640986e-01 -1.0175527073598339e-16 -3.9901520822900873e+00  4.3556552858982445e-01 -9.6856739994856016e-17 -4.1679708583180526e+00  4.1140196904803294e-01 -9.1483487406510144e-17 -4.3452201409102420e+00  3.8473882030113637e-01 -8.5554400974938292e-17 -4.5217329026039925e+00  3.5507301335097213e-01 -7.8957613208440200e-17 -4.6972596018590727e+00  3.2167763884843237e-01 -7.1531481219309914e-17 -4.8714053443482319e+00  2.8343531780316261e-01 -6.3027533355773614e-17 -5.0434898526231908e+00  2.3847340346141258e-01 -5.3029349015591590e-17 -5.2121933014239339e+00  1.8322708320930178e-01 -4.0744220544439542e-17 -5.3744484365258947e+00  1.0953286389771405e-01 -2.4356831344712351e-17 -5.5204545109625114e+00  1.0953286389771373e-01 -2.4356831344712292e-17 5.5204545109625114e+00  1.8322708320930089e-01 -4.0744220544439369e-17 5.3744484365258982e+00  2.3847340346141230e-01 -5.3029349015591522e-17 5.2121933014239348e+00  2.8343531780316239e-01 -6.3027533355773540e-17 5.0434898526231926e+00  3.2167763884843281e-01 -7.1531481219309976e-17 4.8714053443482301e+00  3.5507301335097180e-01 -7.8957613208440126e-17 4.6972596018590727e+00  3.8473882030113549e-01 -8.5554400974938107e-17 4.5217329026039970e+00  4.1140196904803267e-01 -9.1483487406510095e-17 4.3452201409102420e+00  4.3556552858982406e-01 -9.6856739994855967e-17 4.1679708583180552e+00  4.5759426021640953e-01 -1.0175527073598333e-16 3.9901520822900913e+00  4.7776221010486031e-01 -1.0624001929930336e-16 3.8118812403976250e+00  4.9628116428667296e-01 -1.1035808056088137e-16 3.6332440198867864e+00  5.1331855249413394e-01 -1.1414668588312544e-16 3.4543048658688189e+00  0.0000000000000000e+00 0.0000000000000000e+00 0.0000000000000000e+00  0.0000000000000000e+00 0.0000000000000000e+00 0.0000000000000000e+00  0.0000000000000000e+00 0.0000000000000000e+00 0.0000000000000000e+00  0.0000000000000000e+00 0.0000000000000000e+00 0.0000000000000000e+00  0.0000000000000000e+00 0.0000000000000000e+00 0.0000000000000000e+00  0.0000000000000000e+00 0.0000000000000000e+00 0.0000000000000000e+00  0.0000000000000000e+00 0.0000000000000000e+00 0.0000000000000000e+00  0.0000000000000000e+00 0.0000000000000000e+00 0.0000000000000000e+00  0.0000000000000000e+00 0.0000000000000000e+00 0.0000000000000000e+00  0.0000000000000000e+00 0.0000000000000000e+00 0.0000000000000000e+00  0.0000000000000000e+00 0.0000000000000000e+00 0.0000000000000000e+00  0.0000000000000000e+00 0.0000000000000000e+00 0.0000000000000000e+00  0.0000000000000000e+00 0.0000000000000000e+00 0.0000000000000000e+00  0.0000000000000000e+00 0.0000000000000000e+00 0.0000000000000000e+00  0.0000000000000000e+00 0.0000000000000000e+00 0.0000000000000000e+00  0.0000000000000000e+00 0.0000000000000000e+00 0.0000000000000000e+00  0.0000000000000000e+00 0.0000000000000000e+00 0.0000000000000000e+00  0.0000000000000000e+00 0.0000000000000000e+00 0.0000000000000000e+00  0.0000000000000000e+00 0.0000000000000000e+00 0.0000000000000000e+00  0.0000000000000000e+00 0.0000000000000000e+00 0.0000000000000000e+00  0.0000000000000000e+00 0.0000000000000000e+00 0.0000000000000000e+00  0.0000000000000000e+00 0.0000000000000000e+00 0.0000000000000000e+00  0.0000000000000000e+00 0.0000000000000000e+00 0.0000000000000000e+00  0.0000000000000000e+00 0.0000000000000000e+00 0.0000000000000000e+00  0.0000000000000000e+00 0.0000000000000000e+00 0.0000000000000000e+00  0.0000000000000000e+00 0.0000000000000000e+00 0.0000000000000000e+00  0.0000000000000000e+00 0.0000000000000000e+00 0.0000000000000000e+00  0.0000000000000000e+00 0.0000000000000000e+00 0.0000000000000000e+00  0.0000000000000000e+00 0.0000000000000000e+00 0.0000000000000000e+00  0.0000000000000000e+00 0.0000000000000000e+00 0.0000000000000000e+00  0.0000000000000000e+00 0.0000000000000000e+00 0.0000000000000000e+00  0.0000000000000000e+00 0.0000000000000000e+00 0.0000000000000000e+00  0.0000000000000000e+00 0.0000000000000000e+00 0.0000000000000000e+00  0.0000000000000000e+00 0.0000000000000000e+00 0.0000000000000000e+00  0.0000000000000000e+00 0.0000000000000000e+00 0.0000000000000000e+00  0.0000000000000000e+00 0.0000000000000000e+00 0.0000000000000000e+00  0.0000000000000000e+00 0.0000000000000000e+00 0.0000000000000000e+00  0.0000000000000000e+00 0.0000000000000000e+00 0.0000000000000000e+00  0.0000000000000000e+00 0.0000000000000000e+00 0.0000000000000000e+00  0.0000000000000000e+00 0.0000000000000000e+00 0.0000000000000000e+00  0.0000000000000000e+00 0.0000000000000000e+00 0.0000000000000000e+00  0.0000000000000000e+00 0.0000000000000000e+00 0.0000000000000000e+00  0.0000000000000000e+00 0.0000000000000000e+00 0.0000000000000000e+00  0.0000000000000000e+00 0.0000000000000000e+00 0.0000000000000000e+00  0.0000000000000000e+00 0.0000000000000000e+00 0.0000000000000000e+00  0.0000000000000000e+00 0.0000000000000000e+00 0.0000000000000000e+00  0.0000000000000000e+00 0.0000000000000000e+00 0.0000000000000000e+00  0.0000000000000000e+00 0.0000000000000000e+00 0.0000000000000000e+00  0.0000000000000000e+00 0.0000000000000000e+00 0.0000000000000000e+00  0.0000000000000000e+00 0.0000000000000000e+00 0.0000000000000000e+00  0.0000000000000000e+00 0.0000000000000000e+00 0.0000000000000000e+00  0.0000000000000000e+00 0.0000000000000000e+00 0.0000000000000000e+00  0.0000000000000000e+00 0.0000000000000000e+00 0.0000000000000000e+00  0.0000000000000000e+00 0.0000000000000000e+00 0.0000000000000000e+00  0.0000000000000000e+00 0.0000000000000000e+00 0.0000000000000000e+00  0.0000000000000000e+00 0.0000000000000000e+00 0.0000000000000000e+00  0.0000000000000000e+00 0.0000000000000000e+00 0.00000000000