<?xml version="1.0"?>
<VTKFile type="UnstructuredGrid"  version="0.1"  >
<UnstructuredGrid>
<Piece  NumberOfPoints="5585" NumberOfCells="25799">
<Points>
<DataArray  type="Float64"  NumberOfComponents="3"  format="ascii">-75 -75 75  -75 -75 -75  -75 75 75  -75 75 -75  75 -75 -75  75 -75 75  75 75 75  75 75 -75  3.778869748198866 -5.835027891489943e-16 12.27811129328121  3.778869748198874 -5.835027891489956e-16 -12.2781112932812  3.061616997868383e-16 -4.499279347985573e-32 18.75  3.061616997868383e-16 -4.499279347985573e-32 -18.75  -75 -75 -60  -75 -75 -45  -75 -75 -30  -75 -75 -15  -75 -75 0  -75 -75 15  -75 -75 30  -75 -75 45  -75 -75 60  -75 -60 75  -75 -45 75  -75 -30 75  -75 -15 75  -75 0 75  -75 15 75  -75 30 75  -75 45 75  -75 60 75  -75 75 -60  -75 75 -45  -75 75 -30  -75 75 -15  -75 75 0  -75 75 15  -75 75 30  -75 75 45  -75 75 60  -75 -60 -75  -75 -45 -75  -75 -30 -75  -75 -15 -75  -75 0 -75  -75 15 -75  -75 30 -75  -75 45 -75  -75 60 -75  -60 -75 -75  -45 -75 -75  -30 -75 -75  -15 -75 -75  0 -75 -75  15 -75 -75  30 -75 -75  45 -75 -75  60 -75 -75  75 -75 -60  75 -75 -45  75 -75 -30  75 -75 -15  75 -75 0  75 -75 15  75 -75 30  75 -75 45  75 -75 60  -60 -75 75  -45 -75 75  -30 -75 75  -15 -75 75  0 -75 75  15 -75 75  30 -75 75  45 -75 75  60 -75 75  -60 75 75  -45 75 75  -30 75 75  -15 75 75  0 75 75  15 75 75  30 75 75  45 75 75  60 75 75  75 -60 75  75 -45 75  75 -30 75  75 -15 75  75 0 75  75 15 75  75 30 75  75 45 75  75 60 75  -60 75 -75  -45 75 -75  -30 75 -75  -15 75 -75  0 75 -75  15 75 -75  30 75 -75  45 75 -75  60 75 -75  75 75 -60  75 75 -45  75 75 -30  75 75 -15  75 75 0  75 75 15  75 75 30  75 75 45  75 75 60  75 -60 -75  75 -45 -75  75 -30 -75  75 -15 -75  75 0 -75  75 15 -75  75 30 -75  75 45 -75  75 60 -75  3.467537477015872 -0.8933953594734931 12.30039225688133  2.759449398066768 -1.535606448302544 12.34382256919717  1.891999331628308 -1.945656033519167 12.38343205445371  0.9586685190237033 -2.174135648480527 12.40948144893689  -2.117559153112097e-08 -2.247667770299923 12.41846687965073  -0.9586685869166981 -2.174135642246393 12.40948144762869  -1.891999341278946 -1.945656052438111 12.38343207502974  -2.759449412951361 -1.535606477351242 12.34382256628498  -3.467537460567202 -0.8933953088231263 12.30039226312599  -3.778869792942868 5.953260445837371e-09 12.27811129730909  -3.467537456247248 0.8933953188007194 12.30039226349206  -2.759449402488924 1.535606456790124 12.34382256663526  -1.891999337562036 1.945656065095456 12.38343207489717  -0.9586685867705831 2.174135642493558 12.40948144762411  -2.156325673054182e-08 2.247667769058928 12.41846687970115  0.9586685193317259 2.174135648272838 12.40948144893635  1.891999332117844 1.945656033972754 12.38343205428687  2.759449398324429 1.535606448360559 12.3438225691112  3.467537477728643 0.8933953601027987 12.30039225669557  4.684754323437702 -7.583041276716827e-16 -11.87242201677786  5.549940667758809 -8.983486915502079e-16 -11.38590605601917  6.368569760786205 -1.030857202651656e-15 -10.82454430955639  7.135760114965131 -1.1550395123564e-15 -10.19467475107331  7.847545537363399 -1.270253627453276e-15 -9.502783954870678  8.500779912549186 -1.375990297690644e-15 -8.755342612398946  9.093024314326392 -1.471854742963955e-15 -7.958687084979377  9.622429885129593 -1.557547695429787e-15 -7.118943277115798  10.08762647960234 -1.632847374647254e-15 -6.241985318267695  10.48762203217859 -1.697593198574753e-15 -5.333422465508872  10.82171591175046 -1.75167175860547e-15 -4.398606531869848  11.08942668126901 -1.79500512627695e-15 -3.44265480256009  11.29043441422589 -1.827541516249964e-15 -2.470482583338041  11.42453620759126 -1.849248085349731e-15 -1.486842972025373  11.49161406082727 -1.860105733258767e-15 -0.4963706525059722  11.49161406082727 -1.860105733258767e-15 0.4963706525058911  11.42453620759127 -1.849248085349732e-15 1.486842972025302  11.29043441422591 -1.827541516249967e-15 2.470482583337958  11.08942668126901 -1.795005126276951e-15 3.442654802560048  10.82171591175046 -1.751671758605472e-15 4.39860653186983  10.48762203217859 -1.697593198574752e-15 5.333422465508876  10.08762647960232 -1.632847374647251e-15 6.241985318267731  9.622429885129575 -1.557547695429785e-15 7.118943277115819  9.093024314326383 -1.471854742963954e-15 7.958687084979391  8.500779912549167 -1.375990297690641e-15 8.755342612398968  7.847545537363395 -1.270253627453276e-15 9.502783954870681  7.135760114965126 -1.155039512356399e-15 10.19467475107332  6.3685697607862 -1.030857202651655e-15 10.82454430955639  5.549940667758793 -8.983486915502059e-16 11.38590605601917  4.684754323437698 -7.583041276716821e-16 11.87242201677786  3.46753747716137 0.8933953590079985 -12.30039225689372  2.759449398895928 1.535606447738558 -12.34382256916418  1.891999332918961 1.94565603309408 -12.38343205442774  0.958668519812753 2.174135648337233 -12.40948144892283  -2.317133062073456e-08 2.247667770397531 -12.41846687964497  -0.9586685806852075 2.174135643245653 -12.40948144774495  -1.891999340364387 1.945656052754818 -12.38343207506387  -2.759449412366918 1.535606478444751 -12.34382256632819  -3.467537459452158 0.8933953093907054 -12.30039226322389  -3.778869793305155 -4.99014281437303e-09 -12.27811129731906  -3.467537456045034 -0.8933953194865807 -12.30039226349074  -2.759449402149198 -1.535606456894923 -12.34382256665474  -1.891999341166054 -1.945656059680098 -12.38343207481511  -0.9586685949938756 -2.174135640941924 -12.40948144747762  -1.662361823195901e-08 -2.247667768463053 -12.41846687970885  0.9586685196000462 -2.174135648401172 -12.40948144892558  1.891999331541356 -1.945656033539932 -12.38343205441945  2.759449397765677 -1.535606448543019 -12.34382256919757  3.467537477183935 -0.8933953596018362 -12.30039225683946  3.541668763629819 -5.204751978023307e-16 13.23520644192032  3.270339869180662 -4.806013503499285e-16 14.18317082961059  2.957500011128313 -4.34627150652786e-16 15.11821868421427  2.591984550264239 -3.809118699504591e-16 16.03387745626055  2.155720139635511 -3.167994922634537e-16 16.91780848489104  1.616909245803981 -2.376171278862728e-16 17.74253542063105  0.9169434122120165 -1.347518177717638e-16 18.4320090556317  0.9169434122120222 -1.347518177717646e-16 -18.4320090556317  1.616909245803979 -2.376171278862725e-16 -17.74253542063105  2.155720139635513 -3.167994922634539e-16 -16.91780848489103  2.591984550264237 -3.809118699504588e-16 -16.03387745626056  2.957500011128314 -4.346271506527863e-16 -15.11821868421426  3.270339869180666 -4.806013503499292e-16 -14.18317082961057  3.541668763629824 -5.204751978023313e-16 -13.2352064419203  -75 -60.74998678227594 -5.413455946347426  -75 61.50907427704607 6.421476138283367  -75 -7.500000000000028 62.00961894323339  -75 7.5 -62.00961894323342  -75 -61.71300729890635 22.69138357274757  -75 22.5 62.00961894323342  -75 62.00961894323342 -22.5  -75 -22.5 -62.00961894323342  -75 -61.69123533526345 -37.19377007443569  -75 -37.81297757236224 62.15819488684329  -75 61.55555812566854 38.80088482059872  -75 36.89682048485673 -63.06116146554901  -75 -61.8617769373551 50.59895212827973  -75 52.43643946078686 62.29841932416252  -75 62.55753893776773 -52.41101524510159  -75 -51.68339181158553 -60.67570757846403  -75 7.499999999999986 62.00961894323339  -75 -4.263256414560601e-14 49.01923788646684  -75 -14.89032811082181 49.08255698120644  -75 -7.372049462625455 36.10272910689648  -75 7.521325089562325 36.04116887589964  -75 0.02487927115602417 23.05283982683295  -75 -14.87357000914056 23.38396559881194  -75 -7.47478178966422 10.1080703627967  -75 7.508349580248506 10.06048466625522  -75 0.005594631763898406 -2.930225407813197  -75 15.00166002523943 -2.939375521209698  -75 -15.0000000000002 -2.942286340599438  -75 -7.499067561372897 -15.93065724190166  -75 -22.49984459356236 -15.93233237145526  -75 22.49999999999983 10.04809471616706  -75 30.00027667087308 -2.941801204034562  -75 22.50032278268527 -15.93210140470696  -75 -29.99997409892722 -2.942230502947609  -75 -14.99981869248943 -28.92265759057008  -75 -29.9999713678618 -28.9229867288372  -75 0.0001856243560780513 -28.92264828429482  -75 -7.500000000000313 -41.91342951089919  -75 37.08924740778036 10.28535031461668  -75 29.93154123462985 23.07801837267527  -75 37.23086202245943 -15.77704764293443  -75 29.95519746752396 -28.89701749628422  -75 44.40917396271716 22.98083521826123  -75 36.95502393536609 35.77463813597433  -75 7.499999999999673 -41.91342951089925  -75 47.18540537260324 -29.51249923573116  -75 37.34603163781514 -41.77770414839027  -75 46.96555139691444 -1.862982746252769  -75 15.00355418159366 49.02128989416674  -75 22.49999999999977 -41.91342951089926  -75 7.501449250445248 -15.92967605234318  -75 14.99285918750167 -28.91805037657127  -75 -22.50000000000035 -41.91342951089915  -75 -37.21636144111822 -41.74196933477168  -75 -47.14360734872791 -29.46664815900601  -75 -37.50000000000028 -15.93266739736594  -75 -45.0000000000002 -2.942286340599296  -75 -37.50870921622847 10.31556869839858  -75 -52.47945466058451 9.441084889992254  -75 -45.7485354069844 23.28307627838103  -75 -53.71886464532696 36.23511359644581  -75 -38.46001423469239 36.66056870324702  -75 -30.15546625532943 23.35000756552392  -75 -46.70857307950239 49.36738862378702  -75 61.92760747168484 -7.850179358091623  -75 -62.00961894323342 -22.5  -75 37.48940657679779 62.05775234005495  -75 47.25145112991386 47.74814336348328  -75 62.07675513402967 -37.40391908013879  -75 59.6283489365845 22.74228313853121  -75 -36.8850172563118 -62.76806249597166  -75 -7.5 -62.00961894323342  -75 22.5 -62.00961894323342  -75 -22.50208356154835 10.21218256366402  -75 -22.5338842805307 62.04493478295831  -75 -30.0975177852475 49.08895658255608  -75 14.99999999999983 23.03847577293367  -75 30.28323930394518 48.77338325110215  -75 22.44911395751615 35.95449571712528  -75 -22.24988821155249 36.34211800948268  -75 -63.01622611762248 -51.97730985283301  -75 62.51250118488849 52.63110876075615  -75 51.61400847913646 -60.92184840345482  -75 -5
[...]
<PointData  Vectors="disp"> 
<DataArray  type="Float64"  Name="disp"  NumberOfComponents="3" format="ascii">0.0000000000000000e+00 0.0000000000000000e+00 0.0000000000000000e+00  0.0000000000000000e+00 0.0000000000000000e+00 0.0000000000000000e+00  0.0000000000000000e+00 0.0000000000000000e+00 0.0000000000000000e+00  0.0000000000000000e+00 0.0000000000000000e+00 0.0000000000000000e+00  0.0000000000000000e+00 0.0000000000000000e+00 0.0000000000000000e+00  0.0000000000000000e+00 0.0000000000000000e+00 0.0000000000000000e+00  0.0000000000000000e+00 0.0000000000000000e+00 0.0000000000000000e+00  0.0000000000000000e+00 0.0000000000000000e+00 0.0000000000000000e+00  2.4644802705644779e-02 -1.1516502417414363e-16 -2.2919141080791592e+00  2.4644802705644831e-02 -1.1516502417414387e-16 2.2919141080791574e+00  1.9967067377402496e-18 -8.8801566078662629e-33 -3.5000000000000000e+00  1.9967067377402496e-18 -8.8801566078662629e-33 3.5000000000000000e+00  0.0000000000000000e+00 0.0000000000000000e+00 0.0000000000000000e+00  0.0000000000000000e+00 0.0000000000000000e+00 0.0000000000000000e+00  0.0000000000000000e+00 0.0000000000000000e+00 0.0000000000000000e+00  0.0000000000000000e+00 0.0000000000000000e+00 0.0000000000000000e+00  0.0000000000000000e+00 0.0000000000000000e+00 0.0000000000000000e+00  0.0000000000000000e+00 0.0000000000000000e+00 0.0000000000000000e+00  0.0000000000000000e+00 0.0000000000000000e+00 0.0000000000000000e+00  0.0000000000000000e+00 0.0000000000000000e+00 0.0000000000000000e+00  0.0000000000000000e+00 0.0000000000000000e+00 0.0000000000000000e+00  0.0000000000000000e+00 0.0000000000000000e+00 0.0000000000000000e+00  0.0000000000000000e+00 0.0000000000000000e+00 0.0000000000000000e+00  0.0000000000000000e+00 0.0000000000000000e+00 0.0000000000000000e+00  0.0000000000000000e+00 0.0000000000000000e+00 0.0000000000000000e+00  0.0000000000000000e+00 0.0000000000000000e+00 0.0000000000000000e+00  0.0000000000000000e+00 0.0000000000000000e+00 0.0000000000000000e+00  0.0000000000000000e+00 0.0000000000000000e+00 0.0000000000000000e+00  0.0000000000000000e+00 0.0000000000000000e+00 0.0000000000000000e+00  0.0000000000000000e+00 0.0000000000000000e+00 0.0000000000000000e+00  0.0000000000000000e+00 0.0000000000000000e+00 0.0000000000000000e+00  0.0000000000000000e+00 0.0000000000000000e+00 0.0000000000000000e+00  0.0000000000000000e+00 0.0000000000000000e+00 0.0000000000000000e+00  0.0000000000000000e+00 0.0000000000000000e+00 0.0000000000000000e+00  0.0000000000000000e+00 0.0000000000000000e+00 0.0000000000000000e+00  0.0000000000000000e+00 0.0000000000000000e+00 0.0000000000000000e+00  0.0000000000000000e+00 0.0000000000000000e+00 0.0000000000000000e+00  0.0000000000000000e+00 0.0000000000000000e+00 0.0000000000000000e+00  0.0000000000000000e+00 0.0000000000000000e+00 0.0000000000000000e+00  0.0000000000000000e+00 0.0000000000000000e+00 0.0000000000000000e+00  0.0000000000000000e+00 0.0000000000000000e+00 0.0000000000000000e+00  0.0000000000000000e+00 0.0000000000000000e+00 0.0000000000000000e+00  0.0000000000000000e+00 0.0000000000000000e+00 0.0000000000000000e+00  0.0000000000000000e+00 0.0000000000000000e+00 0.0000000000000000e+00  0.0000000000000000e+00 0.0000000000000000e+00 0.0000000000000000e+00  0.0000000000000000e+00 0.0000000000000000e+00 0.0000000000000000e+00  0.0000000000000000e+00 0.0000000000000000e+00 0.0000000000000000e+00  0.0000000000000000e+00 0.0000000000000000e+00 0.0000000000000000e+00  0.0000000000000000e+00 0.0000000000000000e+00 0.0000000000000000e+00  0.0000000000000000e+00 0.0000000000000000e+00 0.0000000000000000e+00  0.0000000000000000e+00 0.0000000000000000e+00 0.0000000000000000e+00  0.0000000000000000e+00 0.0000000000000000e+00 0.0000000000000000e+00  0.0000000000000000e+00 0.0000000000000000e+00 0.0000000000000000e+00  0.0000000000000000e+00 0.0000000000000000e+00 0.0000000000000000e+00  0.0000000000000000e+00 0.0000000000000000e+00 0.0000000000000000e+00  0.0000000000000000e+00 0.0000000000000000e+00 0.0000000000000000e+00  0.0000000000000000e+00 0.0000000000000000e+00 0.0000000000000000e+00  0.0000000000000000e+00 0.0000000000000000e+00 0.0000000000000000e+00  0.0000000000000000e+00 0.0000000000000000e+00 0.0000000000000000e+00  0.0000000000000000e+00 0.0000000000000000e+00 0.0000000000000000e+00  0.0000000000000000e+00 0.0000000000000000e+00 0.0000000000000000e+00  0.0000000000000000e+00 0.0000000000000000e+00 0.0000000000000000e+00  0.0000000000000000e+00 0.0000000000000000e+00 0.0000000000000000e+00  0.0000000000000000e+00 0.0000000000000000e+00 0.0000000000000000e+00  0.0000000000000000e+00 0.0000000000000000e+00 0.0000000000000000e+00  0.0000000000000000e+00 0.0000000000000000e+00 0.0000000000000000e+00  0.0000000000000000e+00 0.0000000000000000e+00 0.0000000000000000e+00  0.0000000000000000e+00 0.0000000000000000e+00 0.0000000000000000e+00  0.0000000000000000e+00 0.0000000000000000e+00 0.0000000000000000e+00  0.0000000000000000e+00 0.0000000000000000e+00 0.0000000000000000e+00  0.0000000000000000e+00 0.0000000000000000e+00 0.0000000000000000e+00  0.0000000000000000e+00 0.0000000000000000e+00 0.0000000000000000e+00  0.0000000000000000e+00 0.0000000000000000e+00 0.0000000000000000e+00  0.0000000000000000e+00 0.0000000000000000e+00 0.0000000000000000e+00  0.0000000000000000e+00 0.0000000000000000e+00 0.0000000000000000e+00  0.0000000000000000e+00 0.0000000000000000e+00 0.0000000000000000e+00  0.0000000000000000e+00 0.0000000000000000e+00 0.0000000000000000e+00  0.0000000000000000e+00 0.0000000000000000e+00 0.0000000000000000e+00  0.0000000000000000e+00 0.0000000000000000e+00 0.0000000000000000e+00  0.0000000000000000e+00 0.0000000000000000e+00 0.0000000000000000e+00  0.0000000000000000e+00 0.0000000000000000e+00 0.0000000000000000e+00  0.0000000000000000e+00 0.0000000000000000e+00 0.0000000000000000e+00  0.0000000000000000e+00 0.0000000000000000e+00 0.0000000000000000e+00  0.0000000000000000e+00 0.0000000000000000e+00 0.0000000000000000e+00  0.0000000000000000e+00 0.0000000000000000e+00 0.0000000000000000e+00  0.0000000000000000e+00 0.0000000000000000e+00 0.0000000000000000e+00  0.0000000000000000e+00 0.0000000000000000e+00 0.0000000000000000e+00  0.0000000000000000e+00 0.0000000000000000e+00 0.0000000000000000e+00  0.0000000000000000e+00 0.0000000000000000e+00 0.0000000000000000e+00  0.0000000000000000e+00 0.0000000000000000e+00 0.0000000000000000e+00  0.0000000000000000e+00 0.0000000000000000e+00 0.0000000000000000e+00  0.0000000000000000e+00 0.0000000000000000e+00 0.0000000000000000e+00  0.0000000000000000e+00 0.0000000000000000e+00 0.0000000000000000e+00  0.0000000000000000e+00 0.0000000000000000e+00 0.0000000000000000e+00  0.0000000000000000e+00 0.0000000000000000e+00 0.0000000000000000e+00  0.0000000000000000e+00 0.0000000000000000e+00 0.0000000000000000e+00  0.0000000000000000e+00 0.0000000000000000e+00 0.0000000000000000e+00  0.0000000000000000e+00 0.0000000000000000e+00 0.0000000000000000e+00  0.0000000000000000e+00 0.0000000000000000e+00 0.0000000000000000e+00  0.0000000000000000e+00 0.0000000000000000e+00 0.0000000000000000e+00  0.0000000000000000e+00 0.0000000000000000e+00 0.0000000000000000e+00  0.0000000000000000e+00 0.0000000000000000e+00 0.0000000000000000e+00  0.0000000000000000e+00 0.0000000000000000e+00 0.0000000000000000e+00  0.0000000000000000e+00 0.0000000000000000e+00 0.0000000000000000e+00  0.0000000000000000e+00 0.0000000000000000e+00 0.0000000000000000e+00  0.0000000000000000e+00 0.0000000000000000e+00 0.0000000000000000e+00  0.0000000000000000e+00 0.0000000000000000e+00 0.0000000000000000e+00  0.0000000000000000e+00 0.0000000000000000e+00 0.0000000000000000e+00  0.0000000000000000e+00 0.0000000000000000e+00 0.0000000000000000e+00  0.0000000000000000e+00 0.0000000000000000e+00 0.0000000000000000e+00  0.0000000000000000e+00 0.0000000000000000e+00 0.0000000000000000e+00  0.0000000000000000e+00 0.0000000000000000e+00 0.0000000000000000e+00  0.0000000000000000e+00 0.0000000000000000e+00 0.0000000000000000e+00  0.0000000000000000e+00 0.0000000000000000e+00 0.0000000000000000e+00  0.0000000000000000e+00 0.0000000000000000e+00 0.0000000000000000e+00  0.0000000000000000e+00 0.0000000000000000e+00 0.0000000000000000e+00  0.0000000000000000e+00 0.0000000000000000e+00 0.0000000000000000e+00  0.0000000000000000e+00 0.0000000000000000e+00 0.0000000000000000e+00  0.0000000000000000e+00 0.0000000000000000e+00 0.0000000000000000e+00  0.0000000000000000e+00 0.0000000000000000e+00 0.0000000000000000e+00  2.2614374850103511e-02 -1.7632803147503154e-01 -2.2960732212845150e+00  1.7996409117826750e-02 -3.0308022005971264e-01 -2.3041802129168052e+00  1.2339126075836791e-02 -3.8401105924720402e-01 -2.3115739834980258e+00  6.2521859936328483e-03 -4.2910572009484088e-01 -2.3164365371348863e+00  -1.3810168389861501e-10 -4.4361863887498476e-01 -2.3181138175348028e+00  -6.2521864364132483e-03 -4.2910571886441973e-01 -2.3164365368906887e+00  -1.2339126138775735e-02 -3.8401106298120613e-01 -2.3115739873388845e+00  -1.7996409214900182e-02 -3.0308022579300831e-01 -2.3041802123731960e+00  -2.2614374742829579e-02 -1.7632802147824864e-01 -2.2960732224501852e+00  -2.4644802997453492e-02 1.1749856143100074e-09 -2.2919141088310302e+00  -2.2614374714655969e-02 1.7632802344751042e-01 -2.2960732225185181e+00  -1.7996409146666895e-02 3.0308022173489291e-01 -2.3041802124385824e+00  -1.2339126114535019e-02 3.8401106547936636e-01 -2.3115739873141385e+00  -6.2521864354603248e-03 4.2910571891320226e-01 -2.3164365368898339e+00  -1.4062993519918579e-10 4.4361863863005158e-01 -2.3181138175442144e+00  6.2521859956416919e-03 4.2910572005384956e-01 -2.3164365371347855e+00  1.2339126079029417e-02 3.8401105933672780e-01 -2.3115739834668823e+00  1.7996409119507145e-02 3.0308022007116298e-01 -2.3041802129007576e+00  2.2614374854752019e-02 1.7632803159923660e-01 -2.2960732212498396e+00  3.0552745587637188e-02 -1.4966528835625318e-16 2.2161854431318670e+00  3.6195265224513974e-02 -1.7730566280596208e-16 2.1253691304569120e+00  4.1534150613823075e-02 -2.0345865841809003e-16 2.0205816044505265e+00  4.6537565967163901e-02 -2.2796832480718419e-16 1.9030059535336845e+00  5.1179644808891742e-02 -2.5070795278683082e-16 1.7738530049091932e+00  5.5439868994885996e-02 -2.7157703243894291e-16 1.6343306209811366e+00  5.9302332484737340e-02 -2.9049764663762270e-16 1.4856215891961504e+00  6.2754977511714743e-02 -3.0741072936114220e-16 1.3288694117282822e+00  6.5788868345232662e-02 -3.2227250815406331e-16 1.1651705927433031e+00  6.8397534992469075e-02 -3.3505128919238546e-16 9.9557219356165605e-01  7.0576408120111692e-02 -3.4572468919844807e-16 8.2107321928237154e-01  7.2322347921319627e-02 -3.5427732755466125e-16 6.4262889647788346e-01  7.3633267918864501e-02 -3.6069898347038767e-16 4.6115674888976771e-01  7.4507844832116921e-02 -3.6498317474007855e-16 2.7754402144473628e-01  7.4945309092351767e-02 -3.6712613156423038e-16 9.2655855134448142e-02  7.4945309092351767e-02 -3.6712613156423038e-16 -9.2655855134433002e-02  7.4507844832116990e-02 -3.6498317474007875e-16 -2.7754402144472307e-01  7.3633267918864626e-02 -3.6069898347038821e-16 -4.6115674888975217e-01  7.2322347921319627e-02 -3.5427732755466135e-16 -6.4262889647787558e-01  7.0576408120111692e-02 -3.4572468919844841e-16 -8.2107321928236821e-01  6.8397534992469075e-02 -3.3505128919238531e-16 -9.9557219356165694e-01  6.5788868345232523e-02 -3.2227250815406272e-16 -1.1651705927433098e+00  6.2754977511714619e-02 -3.0741072936114185e-16 -1.3288694117282862e+00  5.9302332484737284e-02 -2.9049764663762250e-16 -1.4856215891961531e+00  5.5439868994885871e-02 -2.7157703243894227e-16 -1.6343306209811406e+00  5.1179644808891707e-02 -2.5070795278683082e-16 -1.7738530049091938e+00  4.6537565967163859e-02 -2.2796832480718400e-16 -1.9030059535336863e+00  4.1534150613823047e-02 -2.0345865841808981e-16 -2.0205816044505265e+00  3.6195265224513863e-02 -1.7730566280596171e-16 -2.1253691304569120e+00  3.0552745587637160e-02 -1.4966528835625306e-16 -2.2161854431318670e+00  2.2614374851052416e-02 1.7632803138315761e-01 2.2960732212868278e+00  1.7996409123234313e-02 3.0308021994839962e-01 2.3041802129106470e+00  1.2339126084254094e-02 3.8401105916330530e-01 2.3115739834931781e+00  6.2521859987788248e-03 4.2910572006655917e-01 2.3164365371322613e+00  -1.5111737361348628e-10 4.4361863889424957e-01 2.3181138175337281e+00  -6.2521863957730930e-03 4.2910571906164202e-01 2.3164365369123905e+00  -1.2339126132811221e-02 3.8401106304371407e-01 2.3115739873452559e+00  -1.7996409211088596e-02 3.0308022600883244e-01 2.3041802123812625e+00  -2.2614374735557555e-02 1.7632802159027081e-01 2.2960732224684595e+00  -2.4644802999816230e-02 -9.8489660809994026e-10 2.2919141088328909e+00  -2.2614374713337181e-02 -1.7632802358287777e-01 2.2960732225182716e+00  -1.7996409144451293e-02 -3.0308022175557692e-01 2.3041802124422182e+00  -1.2339126138039483e-02 -3.8401106441054572e-01 2.3115739872988206e+00  -6.2521864890904928e-03 -4.2910571860695873e-01 2.3164365368624895e+00  -1.0841490151277616e-10 -4.4361863851244471e-01 2.3181138175456524e+00  6.2521859973916063e-03 -4.2910572007917869e-01 2.3164365371327751e+00  1.2339126075269713e-02 -3.8401105925130236e-01 2.3115739834916309e+00  1.7996409115863112e-02 -3.0308022010717478e-01 2.3041802129168798e+00  2.2614374851199576e-02 -1.7632803150036241e-01 2.2960732212766994e+00  2.3097839762803170e-02 -1.0272536798730210e-16 -2.4705718691584595e+00  2.1328303494656493e-02 -9.4855529674327989e-17 -2.6475252215273102e+00  1.9288043550836822e-02 -8.5781674470944608e-17 -2.8220674877199969e+00  1.6904247066940690e-02 -7.5179974332327457e-17 -2.9929904585019695e+00  1.4059044388927244e-02 -6.2526215578313221e-17 -3.1579909171796610e+00  1.0545060298721617e-02 -4.6898117345974897e-17 -3.3119399451844629e+00  5.9800657318174986e-03 -2.6595753507584961e-17 -3.4406416903845836e+00  5.9800657318175368e-03 -2.6595753507585118e-17 3.4406416903845836e+00  1.0545060298721603e-02 -4.6898117345974848e-17 3.3119399451844629e+00  1.4059044388927258e-02 -6.2526215578313270e-17 3.1579909171796587e+00  1.6904247066940676e-02 -7.5179974332327396e-17 2.9929904585019709e+00  1.9288043550836832e-02 -8.5781674470944670e-17 2.8220674877199952e+00  2.1328303494656520e-02 -9.4855529674328136e-17 2.6475252215273062e+00  2.3097839762803198e-02 -1.0272536798730225e-16 2.4705718691584559e+00  0.0000000000000000e+00 0.0000000000000000e+00 0.0000000000000000e+00  0.0000000000000000e+00 0.0000000000000000e+00 0.0000000000000000e+00  0.0000000000000000e+00 0.0000000000000000e+00 0.0000000000000000e+00  0.0000000000000000e+00 0.0000000000000000e+00 0.0000000000000000e+00  0.0000000000000000e+00 0.0000000000000000e+00 0.0000000000000000e+00  0.0000000000000000e+00 0.0000000000000000e+00 0.0000000000000000e+00  0.0000000000000000e+00 0.0000000000000000e+00 0.0000000000000000e+00  0.0000000000000000e+00 0.0000000000000000e+00 0.0000000000000000e+00  0.0000000000000000e+00 0.0000000000000000e+00 0.0000000000000000e+00  0.0000000000000000e+00 0.0000000000000000e+00 0.0000000000000000e+00  0.0000000000000000e+00 0.0000000000000000e+00 0.0000000000000000e+00  0.0000000000000000e+00 0.0000000000000000e+00 0.0000000000000000e+00  0.0000000000000000e+00 0.0000000000000000e+00 0.0000000000000000e+00  0.0000000000000000e+00 0.0000000000000000e+00 0.0000000000000000e+00  0.0000000000000000e+00 0.0000000000000000e+00 0.0000000000000000e+00  0.0000000000000000e+00 0.0000000000000000e+00 0.0000000000000000e+00  0.0000000000000000e+00 0.0000000000000000e+00 0.0000000000000000e+00  0.0000000000000000e+00 0.0000000000000000e+00 0.0000000000000000e+00  0.0000000000000000e+00 0.0000000000000000e+00 0.0000000000000000e+00  0.0000000000000000e+00 0.0000000000000000e+00 0.0000000000000000e+00  0.0000000000000000e+00 0.0000000000000000e+00 0.0000000000000000e+00  0.0000000000000000e+00 0.0000000000000000e+00 0.0000000000000000e+00  0.0000000000000000e+00 0.0000000000000000e+00 0.0000000000000000e+00  0.0000000000000000e+00 0.0000000000000000e+00 0.0000000000000000e+00  0.0000000000000000e+00 0.0000000000000000e+00 0.0000000000000000e+00  0.0000000000000000e+00 0.0000000000000000e+00 0.0000000000000000e+00  0.0000000000000000e+00 0.0000000000000000e+00 0.0000000000000000e+00  0.0000000000000000e+00 0.0000000000000000e+00 0.0000000000000000e+00  0.0000000000000000e+00 0.0000000000000000e+00 0.0000000000000000e+00  0.0000000000000000e+00 0.0000000000000000e+00 0.0000000000000000e+00  0.0000000000000000e+00 0.0000000000000000e+00 0.0000000000000000e+00  0.0000000000000000e+00 0.0000000000000000e+00 0.0000000000000000e+00  0.0000000000000000e+00 0.0000000000000000e+00 0.0000000000000000e+00  0.0000000000000000e+00 0.0000000000000000e+00 0.0000000000000000e+00  0.0000000000000000e+00 0.0000000000000000e+00 0.0000000000000000e+00  0.0000000000000000e+00 0.0000000000000000e+00 0.0000000000000000e+00  0.0000000000000000e+00 0.0000000000000000e+00 0.0000000000000000e+00  0.0000000000000000e+00 0.0000000000000000e+00 0.0000000000000000e+00  0.0000000000000000e+00 0.0000000000000000e+00 0.0000000000000000e+00  0.0000000000000000e+00 0.0000000000000000e+00 0.0000000000000000e+00  0.0000000000000000e+00 0.0000000000000000e+00 0.0000000000000000e+00  0.0000000000000000e+00 0.0000000000000000e+00 0.0000000000000000e+00  0.0000000000000000e+00 0.0000000000000000e+00 0.0000000000000000e+00  0.0000000000000000e+00 0.0000000000000000e+00 0.0000000000000000e+00  0.0000000000000000e+00 0.0000000000000000e+00 0.0000000000000000e+00  0.0000000000000000e+00 0.0000000000000000e+00 0.0000000000000000e+00  0.0000000000000000e+00 0.0000000000000000e+00 0.0000000000000000e+00  0.0000000000000000e+00 0.0000000000000000e+00 0.0000000000000000e+00  0.0000000000000000e+00 0.0000000000000000e+00 0.0000000000000000e+00  0.0000000000000000e+00 0.0000000000000000e+00 0.0000000000000000e+00  0.0000000000000000e+00 0.0000000000000000e+00 0.0000000000000000e+00  0.0000000000000000e+00 0.0000000000000000e+00 0.0000000000000000e+00  0.0000000000000000e+00 0.0000000000000000e+00 0.0000000000000000e+00  0.0000000000000000e+00 0.0000000000000000e+00 0.0000000000000000e+00  0.0000000000000000e+00 0.0000000000000000e+00 0.0000000000000000e+00  0.0000000000000000e+00 0.0000000000000000e+00 0.0000000000000000e+00  0.0000000000000000e+00 0.0000000000000000e+00 0.0000000000000000e+00  0.0000000000000000e+00 0.0000000000000000e+00 0.0000000000000000e+00  0.0000000000000000e+00 0.0000000000000000e+00 0.0000000000000000e+00  0.0000000000000000e+00 0.0000000000000000e+00 0.0000000000000000e+00  0.0000000000000000e+00 0.0000000000000000e+00 0.0000000000000000e+00  0.0000000000000000e+00 0.0000000000000000e+00 0.0000000000000000e+00  0.0000000000000000e+00 0.0000000000000000e+00 0.0000000000000000e+00  0.0000000000000000e+00 0.0000000000000000e+00 0.0000000000000000e+00  0.0000000000000000e+00 0.0000000000000000e+00 0.0000000000000000e+00  0.0000000000000000e+00 0.0000000000000000e+00 0.0000000000000000e+00  0.0000000000000000e+00 0.0000000000000000e+00 0.0000000000000000e+00  0.0000000000000000e+00 0.0000000000000000e+00 0.0000000000000000e+00  0.0000000000000000e+00 0.0000000000000000e+00 0.0000000000000000e+00  0.0000000000000000e+00 0.0000000000000000e+00 0.0000000000000000e+00  0.0000000000000000e+00 0.0000000000000000e+00 0.0000000000000000e+00  0.0000000000000000e+00 0.0000000000000000e+00 0.0000000000000000e+00  0.0000000000000000e+00 0.0000000000000000e+00 0.0000000000000000e+00  0.0000000000000000e+00 0.0000000000000000e+00 0.0000000000000000e+00  0.0000000000000000e+00 0.0000000000000000e+00 0.0000000000000000e+00  0.0000000000000000e+00 0.0000000000000000e+00 0.0000000000000000e+00  0.0000000000000000e+00 0.0000000000000000e+00 0.0000000000000000e+00  0.0000000000000000e+00 0.0000000000000000e+00 0.0000000000000000e+00  0.0000000000000000e+00 0.0000000000000000e+00 0.0000000000000000e+00  0.0000000000000000e+00 0.0000000000000000e+00 0.0000000000000000e+00  0.0000000000000000e+