# vtk DataFile Version 2.0
Bead Displacements
ASCII
DATASET POLYDATA
POINTS 8315 double
4.803085937499999 0.0 28.477272727272727
6.361810980902777 0.17897677951388888 15.511363636363637
8.366350911458333 0.146435546875 58.20075757575758
9.329659346846846 0.4722876196509009 51.589885339885335
9.357588605182926 0.42859184451219506 66.29434589800444
11.488534268465909 0.10649857954545454 46.425619834710744
15.1121484375 0.10250488281249999 37.30681818181818
17.61410435267857 0.18594990079365076 83.6489898989899
18.25842075892857 0.3012388392857142 98.56818181818181
19.97380859375 0.08786132812499999 34.60227272727273
22.684958147321428 0.5104324776785714 41.25
24.197484691722973 0.5145032728040541 79.39496314496314
24.775311444256754 0.5145032728040541 36.26842751842752
27.447278145032048 0.36045673076923074 110.0378787878788
27.801324314024388 0.3357302782012195 63.46175166297118
27.93172919694767 0.49719976380813946 89.36839323467231
30.901471989329266 0.5714557926829268 24.52328159645233
32.641814630681814 0.26624644886363635 111.38774104683195
41.18499755859375 0.091522216796875 93.76420454545455
42.08771913109756 0.34287347560975606 50.30764966740576
44.03012971698113 0.4918024027122641 96.78280445969125
47.3718994140625 0.21965332031249998 44.83270202020202
56.41762251420454 0.27955877130681817 80.79287190082644
57.27047001008064 0.16060672883064514 70.1282991202346
62.49096733344779 0.35723836710164836 55.50699300699301
66.54763427734375 0.234296875 92.01420454545455
77.25939453125 0.08786132812499999 122.89772727272727
80.35650634765625 0.091522216796875 23.764204545454547
81.02391451322114 0.12390700120192306 101.1756993006993
80.95196109693877 0.5857421875 79.87012987012987
82.74795713682431 0.47492609797297297 40.9551597051597
88.3244731104651 0.38822447311046504 55.84830866807611
89.84552978515623 0.6223510742187499 137.11647727272728
91.94359255420918 0.4662029655612244 63.92857142857144
92.39725847942073 0.35001667301829265 99.50942350332593
93.63197337962961 0.10847077546296295 76.36363636363636
95.41022999043366 0.4482720822704081 70.74675324675324
97.26870265151514 0.5946170691287879 38.95316804407714
100.6130938555743 0.4590952280405405 102.65663390663393
101.186962890625 0.12551618303571427 77.55681818181819
104.90110085227272 0.11981090198863636 31.022727272727273
105.44485802283653 0.10137845552884614 51.796328671328666
107.30796874999999 0.2175613839285714 26.0
108.86436941964286 0.21616675967261903 44.28030303030303
113.0482421875 0.0 31.420454545454547
114.65903320312499 0.10649857954545454 75.42355371900827
116.42098349294353 0.31806430611559133 20.237047898338222
114.81126817759899 0.466853921720297 90.28802880288028
116.68979031544809 0.3481297906839622 131.3550600343053
129.37580566406248 0.3660888671875 72.98295454545455
131.93842773437498 0.3100988051470588 84.36497326203208
137.34027235243056 0.21151801215277777 4.654882154882155
142.82904854910714 0.5690066964285714 124.97727272727275
37.633935546874994 0.732177734375 93.4659090909091
41.441259765625 0.8053955078124999 82.44886363636364
64.1708357093978 1.162933394160584 66.10401459854015
66.91082848837209 0.8241256359011627 120.53911205073996
74.12301136363637 0.8519886363636363 109.77272727272727
78.26469158793604 0.7355832122093022 96.82346723044398
89.72268663194444 0.76146484375 68.03787878787878
94.30449218749999 0.71460546875 46.486363636363635
113.93546932444852 0.8097024356617646 111.97192513368982
125.39066685267856 0.8088820684523809 121.64772727272727
131.93842773437498 0.8120516690340909 136.5289256198347
142.04248046875 0.6983849158653845 27.84090909090909
6.443164062499999 0.9220015914351852 36.47306397306398
14.947986482319077 1.1098273026315788 96.79425837320574
20.570707775297617 1.0459681919642856 19.185606060606062
35.15514252151268 1.152384086277174 107.77832674571805
54.33946104307432 1.0131756756756756 44.54545454545455
60.45791237571022 1.0583296342329545 103.60795454545455
72.29410306490384 0.9987655248397435 107.50874125874125
74.9497524919181 1.4441574622844828 36.72119905956113
76.32356922238371 1.014832394622093 77.34408033826638
80.03051292782737 1.0250488281249999 57.5
88.5103038441051 1.35452880859375 79.17484504132231
97.10071382068452 0.948344494047619 72.67045454545455
114.00704636346725 1.4190301804315475 70.30303030303031
118.6897336798199 1.538814221398305 47.659861325115564
9.75328851744186 1.4303006904069766 81.45084566596194
13.284332431891023 1.2015224358974357 62.861305361305355
35.634920058139535 1.3553801780523256 93.58615221987314
35.668974836482555 1.246404887354651 101.55919661733616
37.43749761814024 1.478641863567073 114.38054323725055
39.03100981841216 1.4089474239864863 104.82800982800983
42.942224121093744 1.3362243652343748 127.27272727272727
48.4513922275641 1.2015224358974357 60.311771561771565
83.27301432291665 1.3260552300347221 112.95454545454545
83.97346435546875 1.29595458984375 35.27840909090909
116.74573974609375 1.3032763671875 32.55397727272727
121.58629595588233 1.4402366727941176 59.7433155080214
129.99990001860118 1.4504092261904762 80.0
134.99634650735294 1.3868307674632352 110.59157754010697
0.3904947916666666 1.6908424479166666 2.9909090909090907
8.330555555555554 1.6514675564236112 47.02020202020203
48.35818589154412 1.5619791666666665 121.40819964349376
59.832233220880674 1.5775102095170455 15.420971074380164
59.87940514605978 1.6808254076086955 79.4244071146245
68.07256081321022 1.524260919744318 91.82076446280992
73.37885253906249 1.69133056640625 13.761363636363637
80.12652744391025 1.6070362580128204 93.90442890442891
85.60622070312499 1.70597412109375 124.34943181818181
85.96893028846154 1.6220552884615382 84.31818181818181
96.16821732954546 1.5375732421875 92.70661157024793
104.994287109375 1.5375732421875 103.80681818181819
118.1878427542892 1.7744542738970586 61.74910873440285
122.75736268939393 1.5531042850378787 8.050964187327823
133.70070379849136 1.7437612248563217 122.4177115987461
146.523408203125 1.6693652343749998 42.49715909090909
9.282386610243055 2.0012858072916666 89.02462121212122
18.831611328124996 1.962236328125 49.65625
27.31408305921052 1.942197779605263 27.589712918660283
39.495758928571426 1.903662109375 50.37878787878788
76.32356922238371 1.8457689861918603 127.38372093023257
86.06416459517045 1.9103182705965907 112.68336776859505
102.12189753605769 2.0726262019230766 86.8065268065268
116.92146240234375 1.8304443359374998 98.7159090909091
121.84799691133719 1.9070675872093021 44.21247357293869
125.57070016571969 2.0589725378787875 44.54545454545455
127.40272930194804 2.0158659699675323 94.33884297520662
132.49727359693878 1.942512356505102 68.52272727272727
138.30724759615384 2.027569110576923 112.41608391608389
2.6647653838734566 2.79131462191358 6.51094276094276
7.337523101478494 2.311477234543011 73.19892473118279
29.841017747961956 2.196533203125 64.10326086956522
30.207561383928567 2.391780598958333 22.206439393939394
35.04266304347826 2.3111349354619564 54.540513833992094
55.85377170138889 2.424321831597222 72.14772727272727
57.474166349085365 2.185818407012195 13.852549889135254
59.15651539522059 2.4532261029411764 27.672459893048128
61.356494140624996 2.6597476881377546 66.64772727272727
69.82779052734375 2.13063720703125 7.4375
80.15192727481617 2.0845530790441176 31.022727272727273
91.70770182291666 2.5333349609374998 114.16098484848486
117.9669746594551 2.26787359775641 22.08916083916084
129.10847565406976 2.1999386809593022 6.6966173361522205
136.95953993055554 2.1737543402777777 22.042929292929294
141.58407353940217 2.2856678838315214 17.20602766798419
142.46991395692567 2.287560705236486 74.08476658476658
2.0346833881578945 2.4431614925986844 95.99880382775119
2.4601171875 2.4433816964285713 58.15909090909091
4.563340297965116 2.5132426417151157 19.220401691331922
4.670523231907895 2.504818564967105 113.93839712918658
18.304443359375 2.4894042968749996 36.75
23.90113852896341 2.5358350800304876 33.17627494456763
24.39483087713068 2.476091974431818 76.5805785123967
30.422877762957313 2.407257526676829 37.07594235033259
35.923139767530486 2.5358350800304876 76.9650776053215
37.61301618303571 2.3680719866071427 36.47727272727273
43.5582477334105 2.5454475308641973 75.3128507295174
64.01733517530488 2.4001143292682925 126.45787139689578
88.30063476562499 2.468484933035714 21.62878787878788
103.30214301215277 2.4894042968749996 111.54040404040406
108.41246493007596 3.0516844354281765 84.60384229030637
122.19380770596591 2.4494673295454543 127.67045454545455
125.04824989720393 2.974953741776315 86.20215311004785
135.9297350761218 2.598292267628205 94.72027972027972
140.64506696428572 2.4768526785714284 138.5681818181818
147.7296284520349 2.44513308502907 13.3007399577167
4.669666883680555 2.871763780381944 33.23232323232323
32.23724990472561 2.7501310022865852 98.20953436807095
46.488404947916656 2.6944140624999995 68.14393939393939
46.9325927734375 2.7822753906249997 93.70454545454545
49.19502197265624 2.74566650390625 5.627840909090909
65.57146326013513 2.940584089949324 114.25522113022112
67.77873883928571 3.0960658482142853 21.2396694214876
69.36977267795139 2.8798990885416664 83.25757575757576
73.80351562499999 2.8091717155612246 119.64285714285712
78.1059314546131 2.712544177827381 136.3068181818182
91.78443859011628 2.7924918241279064 74.9392177589852
103.529931640625 2.87013671875 35.39772727272727
108.16962633634868 2.8285181949013154 122.77212918660285
110.7052734375 2.757869466145833 42.821969696969695
121.73675130208333 2.6959159655448715 33.02156177156177
123.4828208705357 2.677678571428571 80.36363636363636
136.50959142736485 2.6833324535472967 73.59029484029485
138.49357192095587 2.713364545036765 82.65708556149731
143.4959888599537 3.4710648148148144 15.07435465768799
147.6971454326923 2.838596754807692 49.073426573426566
7.003803013392857 3.1713755580357144 119.43181818181819
17.637776264391444 3.186899928042763 105.45005980861244
27.237011718749997 3.6373543875558036 24.786931818181817
[...]
POINT_DATA 8315
VECTORS displacement double
-0.017600444216143707 -0.18502139521180597 -0.10923003544470689
0.006880678468680124 0.20434232798272714 0.5726825191602991
-0.02064489810030601 -0.12919539700556398 0.21075829306226979
-0.03112846045012141 0.07172234362520596 0.10293486798757101
-0.11588292387547128 -0.11259688913102694 0.3739916783880659
-0.031862560249319216 -0.22397372928442622 0.08639020162650013
0.059802331223341554 -0.2658500453115107 0.07235907646685291
-0.11803677317957906 -0.16214352029556203 -0.059653976236006656
-0.16230538899706204 -0.029728152550077047 0.20896761573960987
0.04670367637591255 -0.2766571003980257 -0.10818162559969835
-0.0032031819029683106 0.08822485334139052 0.028934671294180703
-0.20281969606807948 0.09599871174656194 0.6151123582663587
0.10485099914988183 -0.2802332084978749 0.4292293440365995
-0.08096903206791595 -0.03054009718205436 0.2436392277777628
-0.06505516753460938 -0.03861850361788943 0.3115147032126018
-0.04340844644206143 -0.06046238899126771 0.01243025397998565
-0.0010828815238390632 -0.05836097629697201 -0.1631828997757765
-0.15111404427564423 -0.06783811783562521 0.249787129445167
-0.16786419648598638 -0.4093793138040258 0.17681492972639035
-0.02141090604046525 0.08680439620208275 0.2943131160477819
-0.12745929278831625 -0.24150813709271596 -0.20041041674961946
-0.12723852229873245 -0.033741866142217886 0.24589070290316783
-0.15783871943272487 -0.033416318843146275 0.3107389483554641
-0.15955181198069113 -0.1738785373743205 -0.000393603903845019
-0.09188852808564718 0.039378164888065004 -0.08721191335789058
-0.12807811595608598 -0.08696784880014277 0.23990910440006985
-0.11670279768142677 -0.42761992977048263 0.0895286079069848
-0.008690197642692965 -0.21273266310565414 -0.12823425876497652
-0.14483366266452435 -0.2692622488197491 0.11905041532816085
-0.26466474935315887 0.0069848357860502475 0.42457358292037384
-0.052510241064069874 0.022384573355709037 0.05801382670023969
-0.03398304269090602 0.08486708775752744 -0.05833032118393078
-0.1086235445931294 -0.03502076136787835 0.30803989976851653
-0.03443041369889954 -0.04817343079280284 0.3179223129655142
-0.10787905484268379 -0.053856419993222104 0.2326388168979605
-0.15480117225716583 0.006051682593870775 0.32049082331243994
-0.12311269039673789 -0.09737599320303197 -0.018825887482989856
-0.024224916362783233 -0.019609159397153908 0.01795493114975244
-0.16006582360533628 0.010747984392793897 0.235157618861777
-0.12331810237010643 0.044671165669669166 0.7579095207472051
0.008770665219330454 -0.22838862965222873 -0.07936214273125941
0.05709310583043248 -0.11313616550995617 0.20553616352653137
0.027085313420244006 -0.1771764591182756 -0.173413187002879
-0.202512405736627 -0.32602120054570405 0.6153659621183465
-0.07297950481839166 -0.27992518983359904 -0.03913465995748311
-0.11480755739539461 -0.032203446092244264 0.32864092534208567
0.22278635685979964 0.03400062474331578 -0.29142033194082373
0.011241363858275122 -0.1740256459227303 -0.18093919395975888
-0.09875589886151204 0.11282168089957711 0.13615302890252678
-0.07865418628648513 -0.04214532884099442 -0.007906401143472408
-0.01770974030466732 0.03041385323740975 -0.2663543192677196
0.04730325266442037 0.06991193952177743 0.4681992197131466
-0.03567766281176432 0.11105712192052286 0.11506674361902469
-0.18883345451271083 -0.0431907004020029 0.2655840878964284
-0.17106579866859306 0.065816870921665 -0.10180204163854967
-0.06118258631688889 -0.1482814091559832 0.29807613039524483
-0.14387203810507287 -0.12189523358448429 -0.06321881998988488
-0.17037890646250275 -0.10328316806006999 0.2839892112560847
-0.22801329680613946 -0.11072984948015496 0.23979489887065597
-0.09985142660248414 -0.0672653390866611 0.3731657416434473
-0.07675791800306797 0.021384615149699582 0.3134694593543159
-0.07858092938343475 -0.016717587640365905 0.27373946826931217
-0.02269655523011238 0.03587384741807065 0.17593832466511117
0.005697536196805686 0.07988030381167865 -0.09442029860355206
-0.06418660958237865 -0.0414467117947539 -0.23593374687869684
-0.0006403130624965669 -0.06764123579633707 -0.1895920348262905
-0.17593870015078394 -0.043156697339755246 0.16251616977868366
-0.09647216096719546 -0.008447060725877531 -0.23829028591215362
-0.24994951146592115 -0.056493171724356195 -0.009394191817492015
-0.06859165968238301 0.01624911919243166 0.2604322080275949
-0.20142365447095045 -0.05372149871309784 0.1769627169704222
-0.15709700848087493 -0.034329284708958574 0.23137968772080342
0.0054437570072281005 -0.06110236210056197 0.018344152859910423
-0.16511607869939837 0.030778830282762515 0.7313029851443673
-0.1187276405853055 0.037299004041045025 -0.09793372850163706
-0.14568157405300042 0.013455745732841029 0.7405740866798141
-0.13035378634889128 -0.09569376165887788 -0.06587502902874576
-0.08118818165267783 -0.054938154710387765 -0.10301531849474088
-0.02694004090682256 0.07099694453058913 0.28167377668019355
-0.21640170714247553 0.025199660680786495 0.02452847758264909
-0.06844206300624478 0.005536037025510643 0.35065678484455276
-0.11062992047042997 -0.047209774963112405 0.16975396555703526
-0.21194863389247587 -0.08314016304138527 0.1668165691791046
-0.18390025417262734 -0.05762308631464341 0.27383245508055154
-0.21122223186403488 -0.020580108319475432 0.027989224597405382
-0.16055827743092266 -0.041898127883674086 0.31314091121313936
-0.08202473441653524 0.018346374311662528 0.35727389639298224
-0.21687999684057502 -0.042498721716818455 0.32810984840422464
0.02840595097238463 -0.03129383548933884 -0.049086551998478
0.09089574961241453 0.03538782828753284 -0.006959659211908331
0.0227166174443596 0.029230255820600792 0.290061092477508
-0.0972961879162142 0.13990379965134925 0.4504896856585532
-0.08218975809222684 0.1493623308821157 0.07469494824043466
-0.06738502005746899 0.09345208320091802 1.6587049031214236
-0.06727296228466884 0.08634613509846178 0.3731949831460071
-0.22378285996979486 -0.17809620425926576 0.17612790876789575
0.005694615442934037 0.0558747438147551 0.6424444276110801
-0.19249225692391292 0.041852994737713534 0.5614962637372685
-0.1277820068544031 -0.10996575966096556 0.12402512416207401
0.02175703977540877 0.04133115116856145 0.009325759393949085
-0.08114177889950724 -0.08473718299313182 0.2831658577231906
-0.1757339189438909 -0.012093659424104342 0.162299198584833
-0.030797080116371944 -0.08046661960331791 -0.21882011544310842
-0.06352410666492858 -0.06492351821993014 0.3415606286575752
-0.14000366650367368 0.015069275611102828 0.21637784514332736
0.02245002939672247 0.0018874616623862916 0.3844258059657051
0.0005473665511175341 -0.1175670757669125 -0.4505114821791043
-0.020773199962036415 0.08938505103066108 -0.057647206090194913
-0.05804233282333371 0.04439761236195583 0.024084149737589655
0.008839069306135983 -0.12219937450434015 -0.1935026320068829
-0.09322976205579181 0.11793571973233474 0.11748584850482757
-0.0030277119343864456 -0.06429506142722241 -0.09371358020936427
-0.07688122900628969 0.10437875287161091 0.26838812824016145
-0.14447726192487664 -0.05659144233177038 0.334339778634714
-0.09054732519011566 -0.0978571214416073 0.3391162421619782
0.02716244625321451 -0.057841495439308055 -0.2078943736579788
-0.05280181592338806 0.007115194136748215 0.1805682016351824
-0.016536870030208206 0.0048839851501703 0.16149729829453463
-0.09893618909896418 0.09128100005553996 0.22250363951768293
0.009325672708158095 0.03243938636449961 0.1776316785313128
0.48348974455024063 0.5026624689146069 -0.9318734663984856
-0.014186836499874289 0.062411965121966784 0.2230949916459508
-0.0769470518817994 -0.11199180651477958 -0.22519099301086332
-0.127349386133897 -0.08846965236633242 0.10559924139560906
-0.062263722224120244 -0.042039831147090645 0.345906756949816
-0.05571459094330322 -0.010015136158920246 -0.32264597584901367
-0.07475490194200773 0.03563204751133009 -0.2120577069757914
-0.24409737222337213 -0.13391491066999928 -0.07691836385342299
0.007806850932759346 0.05927092866413641 0.0570222122044548
-0.010169130703495455 -0.05482499575120858 -0.025155170590572595
-0.12030403401578837 -0.1175655630335739 0.23995631671888873
-0.08003195844794675 -0.07634795697196362 -0.4143656710854833
0.04225424446526915 -0.04781600167698574 0.018048511568842684
-0.13791462790948117 -0.10643491351867995 0.3329721715505798
0.03374052637796865 -0.0014321759973325854 -0.20762897179512407
0.0791605438293459 -0.09906635843704636 -0.3618155186011993
-0.06524396071341698 -0.05963884276722897 -0.237212887631987
0.02981488096864382 0.01842818066583307 0.2034985200160584
-0.09424205048526346 0.017286035419315837 -0.14183630884079435
-0.0884547387714476 -0.03966701208135204 0.18226344059509358
-0.02156074489657067 0.04109220811111447 -0.01437510898492178
-0.033971782278371165 0.03490752335615355 -0.1884145272944835
6.148191623737979 -2.985223933081553 -5.379334721476937
0.014540065483764408 0.005622856280149691 0.017413331026716605
0.029338598106782854 -0.017023715834966424 -0.022643421732986724
-0.26704235307771285 0.007552476365648708 0.30044683059929866
0.020518347576903295 -0.005090805907712159 -0.01713634298267408
-0.14490411201959574 0.07158154509628645 0.5523345605013645
0.04149494799939646 -0.02870818263703212 0.099750067145294
-0.22582574709560532 -0.063430140863169 0.16666270605917077
-0.18633910360936312 -0.046417888199703494 0.31162734042327145
-0.05732242651230024 -0.07711344613474225 -0.3085400715218789
-0.05795553694326827 -0.06864900442199229 0.2497340813440303
0.05400607302158278 -0.06296783047349219 -0.23009193034934583
-0.06031798033815505 0.0383499691400111 0.141865181186688
0.011916478502826067 -0.5416744246117977 0.7130056416726234
0.443837724636694 -2.964071666309687 -0.9364626934393954
-0.013201179571069588 0.03571898741371182 -0.21523247894984365
0.0193638378747778 0.017048477594832523 0.13927259105202694
-0.0018392901521817606 -0.0453607383475747 -0.1775232273722267
-0.22322137888618698 -0.05478598083133912 0.12397596656214205
-0.16861854906422025 -0.14152655461453412 0.1104936895710864
-0.18732186136342222 -0.04024579952341023 0.25746051622765265
-0.04153044729072519 -0.09808486627177837 -0.15091334137824486
-0.1893281472397632 -0.08751253119364932 0.28749526563107963
-0.027263963088756782 -0.013932574640633355 -0.25731010465860393
-0.12383513227429432 -0.05845511254892077 -0.022811193843935484
-0.18472719694578643 -0.049707124972788286 -0.056420662679158795
-0.06511960611376821 -0.07222230882931635 0.09330642224443864
-0.2467220995356456 -0.07496216677040968 0.11461788564623987
0.06394770022994578 -0.06207367787661955 0.09896589743662076
-0.020762326715896506 0.0331896386906263 0.007354373074306864
-0.005552380838878435 0.008888397095284883 0.03324497368030421
0.05119489990983084 -0.1049280228293501 -0.10482564112606951
-0.12964771635670047 0.08980374692170345 0.3916113235244012
-0.07917047000299249 0.005410080421827779 0.07428305962386617
-0.09331517879402895 0.05665675468970077 -0.2252732278016225
0.13825522169338456 0.7005066163753715 -0.7034157240456302
-0.022434323715145865 0.19003849734428702 0.18459346207852434
-0.13078967550214582 -0.03541246950690047 -0.08431810775374515
-0.1562298752646143 -0.007546905204366627 -0.012204342267793322
-0.019941271962142793 -0.05291406647745234 -0.0972340538963472
-0.10890562609189658 -0.03721537529467822 0.40249879363624075
-0.1768855126615776 -0.06385599748125648 0.07283420242502814
-0.18604911557663684 -0.15936131690566713 0.21095827245520127
0.03100478082905056 0.046291369372863045 0.6401861265270483
-0.020445960205165647 0.07736577515485754 0.3379814586317522
0.052464170626379314 -0.0366552102003741 -0.29248085894336384
-0.010459744860355613 -0.06046145676151138 -0.21947593463358928
-0.016528129910167777 -0.015498520359609191 -0.16334297624212368
-0.12393237843906668 0.026928555086558337 0.139042112017691
-0.19359004964908166 -0.039363970774691115 0.1334918695971794
-0.213275143799585 -0.07687750941351146 0.1854160209040998
-0.06108215651290294 -0.0245465668331164 -0.24201164005300413
-0.06896295945168873 0.0029645312315866867 0.033834808133342165
-0.10250863274175259 0.08387149436946517 0.05435627712326152
-0.09873499677752307 0.07147395083577424 0.19144401170294145
-0.1379811046589623 0.0012891304521125413 0.2727278963980382
-0.13594328834925307 -0.08549667438546216 0.2989307851027405
-0.06158347826024624 0.06867674036926763 0.16793265036679372
0.02747468325426894 -0.02645564864105232 -0.05954733912993504
-0.034961332162581016 0.06489241132466539 0.13388973595360198
-0.04860733240681725 0.11202245708679337 0.06424412463354656
0.010389756911337145 -0.05403434096853266 0.2437657479697748
-0.14303326693377727 0.03874205815300691 0.6215824476089722
-0.19150687106234798 0.0864681563319678 0.6006934563254447
-0.08444422209390012 -0.13141648917738902 -0.12804222712817648
-0.1582924429517405 -0.09620255434393465 0.2918704257410951
-0.12989969373716548 -0.062452839846326214 0.42373347266787675
-0.08059128536571336 0.02635945399157169 0.2614096027243207
-0.2709708405358313 -0.10846322002888975 0.38651197294518624
-0.1622664384705388 -0.16552557126196676 0.10143474729527213
-0.14894644102487575 -0.08402123899989045 0.255102676199499
-0.22931380941285795 -0.046789849655199056 0.5846440017412959
-0.08821521810114064 0.04491224805244176 1.2386936866571863
-0.17428159308911972 -0.0159092957653586 0.2793072274521222
0.09209193095304613 -0.0019735489613288415 0.0432177239104341
-0.1718693238524196 -0.08180445944616155 -0.03750393667411345
-0.05956168912395299 -0.07928000012476888 0.2121613434961347
-0.0419185824502506 0.009705704601903342 0.11777175917508487
-0.0287862563742749 -0.04283218840198044 0.38391961189785917
-0.131128785378678 0.05738035523299079 0.11237558953502003
-0.08402910185424162 0.15943829029506507 0.19073287571433895
-0.03734583571710459 0.05585647066616506 0.19109558374060498
-0.15654670077940658 -0.05050424638037887 0.23486892484457655
-0.16108040430313864 -0.015739640217791617 0.35567766197108597
-0.23431819688018862 -0.08514054335384369 0.06558002709356003
-0.16545205638489335 -0.07688187307889827 0.18651127481207652
-0.1596806518592473 -0.029907797388426083 0.3555479221560063
-0.05481424741930141 0.0625921215746601 0.33795652713712343
-0.08901181082346454 -0.140233794890531 0.1616477443860731
-0.07265780496045693 0.057228087145655415 0.31633991796488203
-0.0645947165716052 0.08817160051712847 0.18440207691946853
-0.039412021338080194 0.048226481229654894 -0.2627142069751045
-0.054620162162621 -0.05552008482784565 -0.2847423654961929
-0.030006797739901003 0.1347564720559129 0.08788038300512824
-0.05764203473568408 -0.029405591349212834 -0.1850261710286567
-0.12825455321413326 -0.0027459858864080644 0.1990423726844739
-0.145322155018885 -0.021456650321287185 -0.00390634260800482
0.009720439462674868 -0.025992046955103376 -0.25281061332621846
-0.09747789137577634 -0.019372628252630086 0.27512168126796155
-0.07399476367605295 -0.08072472665925634 -0.35868609854281885
-0.041936569131742374 -0.008057493322049858 0.07150009787599032
-0.23843812677676368 -0.10612085205615873 -0.09684088625770926
-0.04251790803603939 -0.028113510088950022 0.0036995245267021915
-0.037898540127940805 -0.004313044724567838 -0.235935720925605
-0.2245941964024496 -0.11727395572276755 0.14329095419445537
-0.08089605368100194 0.046899630299309436 0.007089246942918237
-0.05030879510832165 -0.013179360257121964 -0.19332313766946285
-0.006157684355301285 0.021897045261601633 0.14553789234085457
-0.030969992473103503 0.0021900378151293864 0.39716447936368837
-0.00398015164525134 0.11191964396221543 -0.09693041596341345
0.03458858113118879 0.020940605517983713 -0.3096347879996131
-0.03180812714671788 0.12246266555648777 0.16860207637945024
-0.017247038861313513 0.10047965290143601 -0.019228835465540328
0.045066278825458994 0.08537432169790105 -0.4240973179369689
-0.06279207034574624 0.08069814263618014 0.17714595940859823
-0.12954384693988175 -0.042436076809919676 0.2023104857097877
-0.09619277261960946 0.05643757075493028 0.24162096558556811
-0.052638205241020586 0.014728311259792903 0.182825963544488
-0.1094058238991451 -0.014551276705028648 0.07295000011740171
-0.147286195585572 -0.05548335739679544 0.18388158161118895
-0.1883570083963093 -0.020465018652479294 0.28776552426738533
-0.06626002845010248 -0.04082519882156266 0.41809157261268837
0.04730367892341292 -0.0037124720999610616 0.1068475641515505
-0.07990832961516503 -0.059975034038173725 0.2322362333525092
-0.016276816405223826 0.040158734774495386 0.23462542111293772
-0.053742849782224766 0.14513913726270555 0.12249057224852322
0.04533631983287023 0.09296935444592336 0.04774970439102333
-0.04408489725915388 -0.04408733146401467 -0.10496530889076183
-0.11902988186854557 -0.008925687708745578 0.05324822593294698
-0.0733604984852061 -0.03027169775162264 0.1228583718093148
-0.1808213910195704 0.045548078416977944 0.036350712598988366
-0.00181764283646757 -0.020405919803059724 0.020461920641082543
-0.16974893681809533 -0.09213686492645756 -0.2800298699997654
-0.14370504470017664 -0.05314561417115993 0.0008146224781029332
-0.0017536575923529085 0.10386964563358614 0.17464048448997005
-0.06806211648731875 -0.02990982687830801 -0.2718292228905739
-0.25300871288899174 -0.16583609198213534 0.13409035598324692
-0.012895841154715981 0.044561168428912445 -0.05925094323573887
-0.005733502909578192 -0.008788989993561813 -0.30460606430827397
0.04909640641955093 -0.052287952578753405 -0.34777344066643323
0.001581824859854919 -0.06985691016897277 -0.08369664256692744
0.01860118705695868 0.0874089718385207 0.20882059924296215
-0.04069463685488017 -0.002469164829069115 0.13506611100383736
-0.12554487827128824 -0.008930850993475126 0.12902869997290622
-0.14898450429745047 -0.06236859993999122 0.10169851202323343
-0.12402731842493964 -0.04150940850740881 0.1407346823951201
-0.06760611395471727 0.09209664957883579 0.24591653861174478
-0.0917511934527333 -0.028650691127257488 -0.18389468145172572
-0.25934925227469563 -0.1033054135646676 0.09698206242903495
-0.08490666019892501 -0.014789020438496614 0.06202784947402051
0.024980875288903803 0.009783463881775312 -0.0069564233851906465
-0.16587974379922343 -0.040571525395542984 0.5390481441024093
-0.04523758837089531 0.009093252793199724 0.21220539921734982
-0.020738518317571675 -0.0896085717068118 -0.3789078527434562
-0.023435894860483586 0.019013546109356128 1.1853565166576248
-0.04217293102941255 -0.030369570873095775 0.33203821968379543
-0.0028033791546988596 0.0285204471610081 0.15989629906874825
-0.04533342255319894 0.03697431579731969 0.15683523619713924
-0.028600805390169626 -0.06712662918598689 -0.39968219428615726
-0.17016452178025432 0.042524112408104386 -0.03584398598293603
-0.09909816357571088 -0.01358259458065536 -0.21688400176501332
-0.08187480592146557 -0.03365661386710883 -0.3202295739593968
-0.20160043390760052 -0.16450476159863836 0.39669839389407
0.05513831361634658 -0.047979536226838704 -0.005421756119623922
-0.11258293406986297 -0.08725988290276199 0.1995917931657516
-0.21867434572966715 -0.03612414184478041 0.18665368618212597
-0.18930044498388554 -0.06976949204717808 0.3978168027189639
0.033564622794344245 -0.02890014011029951 0.1395817551214833
-0.171708840814091 -0.04074334159579962 0.4636276166517632
-0.04827710346322078 -0.12066217093543052 0.14180904666507388
0.003275280225849997 -0.10518917243189296 -0.1896029202188494
0.00109017725709748 0.11832797406118267 -0.1169133667703477
-0.11728509053844505 0.11447901646265368 0.1820431897915853
0.03275160371885022 -0.019280848460302202 0.05791640445259816
0.013779345023380074 0.10778550426752531 0.18980325314042545
-0.013646575691893759 -0.07968070083885426 -0.19069196622225704
-0.025911152096909973 -0.0052465326123503075 0.22801945912827648
0.01989443849012673 0.10097311501982009 0.2036227526466945
0.024791675303325822 0.011452483485121512 0.6975076710172345
-0.029651306204436345 0.05571853077596067 0.004384129066991704
-0.06018001413715268 0.09383010388865731 0.203491565603926