# vtk DataFile Version 2.0
Bead Displacements
ASCII
DATASET POLYDATA
POINTS 2752 double
30.901471989329266 0.5714557926829268 24.52328159645233
32.641814630681814 0.26624644886363635 111.38774104683195
42.08771913109756 0.34287347560975606 50.30764966740576
81.02391451322114 0.12390700120192306 101.1756993006993
89.84552978515623 0.6223510742187499 137.11647727272728
92.39725847942073 0.35001667301829265 99.50942350332593
100.6130938555743 0.4590952280405405 102.65663390663393
108.86436941964286 0.21616675967261903 44.28030303030303
74.12301136363637 0.8519886363636363 109.77272727272727
78.26469158793604 0.7355832122093022 96.82346723044398
113.93546932444852 0.8097024356617646 111.97192513368982
54.33946104307432 1.0131756756756756 44.54545454545455
60.45791237571022 1.0583296342329545 103.60795454545455
72.29410306490384 0.9987655248397435 107.50874125874125
35.668974836482555 1.246404887354651 101.55919661733616
37.43749761814024 1.478641863567073 114.38054323725055
39.03100981841216 1.4089474239864863 104.82800982800983
42.942224121093744 1.3362243652343748 127.27272727272727
48.4513922275641 1.2015224358974357 60.311771561771565
83.27301432291665 1.3260552300347221 112.95454545454545
48.35818589154412 1.5619791666666665 121.40819964349376
68.07256081321022 1.524260919744318 91.82076446280992
80.12652744391025 1.6070362580128204 93.90442890442891
85.60622070312499 1.70597412109375 124.34943181818181
104.994287109375 1.5375732421875 103.80681818181819
39.495758928571426 1.903662109375 50.37878787878788
76.32356922238371 1.8457689861918603 127.38372093023257
86.06416459517045 1.9103182705965907 112.68336776859505
116.92146240234375 1.8304443359374998 98.7159090909091
61.356494140624996 2.6597476881377546 66.64772727272727
91.70770182291666 2.5333349609374998 114.16098484848486
117.9669746594551 2.26787359775641 22.08916083916084
64.01733517530488 2.4001143292682925 126.45787139689578
103.30214301215277 2.4894042968749996 111.54040404040406
4.669666883680555 2.871763780381944 33.23232323232323
32.23724990472561 2.7501310022865852 98.20953436807095
65.57146326013513 2.940584089949324 114.25522113022112
78.1059314546131 2.712544177827381 136.3068181818182
110.7052734375 2.757869466145833 42.821969696969695
147.6971454326923 2.838596754807692 49.073426573426566
17.637776264391444 3.186899928042763 105.45005980861244
27.237011718749997 3.6373543875558036 24.786931818181817
44.366716579861105 3.0523676215277775 64.46717171717172
46.45911783854166 2.9677604166666662 100.625
64.61468505859375 3.0605029296874995 109.71306818181819
88.21752269847971 3.015780722128378 48.56572481572482
14.16938244047619 3.444721912202381 99.82954545454545
34.49222745028408 3.328080610795454 106.19318181818181
47.25441042877907 3.344179233284884 107.60835095137419
76.85588324652777 3.410321180555555 130.68434343434345
94.67058105468749 3.4961486816406246 110.54332386363636
124.05402960526314 3.368017578125 101.81818181818181
33.579983038651314 3.5838173314144735 111.92882775119618
48.803713650173606 3.6202121310763884 113.28598484848484
58.24633046025814 4.607944654381793 44.25580533596838
62.81108723958333 3.74875 75.14393939393939
70.02611983918796 4.072404624771897 72.22378898473788
75.14855324074074 3.789245756172839 126.62457912457913
94.0977596507353 3.7384133731617646 102.8475935828877
103.02990782202744 3.7930378239329263 117.28104212860309
30.623333740234372 4.002571614583333 67.14962121212122
44.7277565238402 4.6859375 116.16916588566073
68.12317859738371 4.089978878997093 129.90882663847782
6.931282552083333 4.246630859374999 134.54545454545453
61.93097205528846 4.16778094951923 100.83916083916084
106.35880015980113 4.399722567471591 117.32954545454545
18.18883634868421 4.639694695723684 127.60765550239235
22.298280222039473 4.923317228618421 61.25
31.209871773097824 4.520401664402174 60.22974308300395
37.64788178943452 4.560421316964285 117.55681818181819
44.757211371527774 4.5687890625 68.03787878787878
52.566789729420734 4.635935118140244 127.50554323725055
105.14072265624999 4.548848902925531 96.67311411992263
116.33258231026785 4.6092331659226184 112.65151515151516
6.878899104420731 4.928806211890243 126.710088691796
22.616970214843747 4.8836254882812495 102.25568181818181
40.847719235392006 5.8106318186020705 117.52487896718667
44.176942027698864 4.8656538529829545 52.138429752066116
53.45629638671875 4.7591552734375 106.8096590909091
114.13604910714285 4.7696149553571425 48.92045454545455
115.5783230251736 4.921861436631945 103.54166666666666
2.4894042968749996 5.218430397727272 128.4659090909091
9.063589638157893 4.963394325657894 123.69318181818181
13.65704152960526 5.294801089638157 103.51375598086123
32.04554642078488 5.101405795784884 108.311310782241
108.84655689201732 5.5645507812499995 121.5470297029703
19.707141755756577 5.472065172697368 102.88576555023923
57.99684430803571 5.748641183035714 112.81818181818181
62.820849609374996 5.511301491477272 117.32954545454545
66.10626252003205 5.481946113782051 102.55244755244756
66.63793619791666 5.5059765625 126.90151515151516
75.90686257102273 5.451396040482954 132.38894628099175
25.32959485176282 5.587079326923076 49.828088578088575
37.210459776182425 5.612043391047297 137.1406633906634
66.73189900716145 5.723189290364584 116.3683712121212
71.37401677911932 5.770891779119317 114.12964876033057
76.00004882812499 5.687864925986842 93.86363636363636
97.95516442587208 5.673526071947674 99.3208245243129
111.5684724506579 5.934493215460526 101.83911483253587
9.371875 5.91907894736842 50.51136363636363
38.4326748934659 6.003857421875 96.75619834710743
40.208118318256574 6.065514494243421 105.58612440191386
75.94347145774147 6.459804465553978 101.5650826446281
88.24970066236412 6.105725628396739 46.568675889328055
106.17642134232955 6.288741122159091 113.67045454545455
7.468212890625 6.235071443256579 50.406698564593306
21.73411800986842 6.18112150493421 132.29665071770336
32.402932400173604 6.467569986979166 100.24936868686868
53.95719209558823 6.2967285156249995 47.72727272727273
80.4169535792151 6.3205668604651155 92.7906976744186
27.92294664884868 6.543356805098683 47.20394736842105
30.076234266493053 6.711629231770833 104.0719696969697
88.82471988075658 6.566478207236842 95.95693779904308
24.936385777484936 7.379410611194778 61.56945965680905
44.801142035590274 6.866200086805555 110.67866161616162
59.78528029983107 6.981413640202702 45.44840294840295
13.214343749999998 8.0363828125 102.82575757575759
27.478199678308822 7.321777343749999 102.6370320855615
29.492119140625 7.160698242187499 95.27556818181819
54.66719373337766 7.134838347739361 64.99032882011606
81.40514756944444 7.107005208333333 108.62373737373737
89.55864923650567 7.201966441761363 48.21539256198348
144.43606891396604 7.162686873070988 27.18294051627385
10.829173333960844 7.579362763554216 131.2883351588171
109.12076572516025 7.532043770032051 94.86305361305362
22.10801282051282 7.734800681089743 103.44988344988343
8.542824519230768 8.248451522435897 136.09615384615384
54.33946104307432 8.144982580236485 113.08353808353809
87.63178051097972 8.04999736064189 47.082309582309584
138.9234033203125 8.053955078125 108.7784090909091
1.962236328125 8.42736572265625 48.88068181818182
37.73460998535156 8.569530232747395 67.57220643939394
58.71168885522959 8.301998963647959 124.07467532467534
85.62670475072254 8.886013705744219 43.51090383604834
93.85392127403846 8.500771233974358 28.493589743589745
105.667890625 8.37611328125 115.89772727272727
13.313761613175675 8.611993243243242 136.25921375921374
55.953397936698714 8.590885416666666 103.51107226107227
79.8105564283288 8.782949431046195 108.7784090909091
86.70861753806088 8.819925631009616 97.69813519813519
98.22092524509803 8.734449678308824 64.63458110516935
121.41598772321427 8.639697265625 22.916666666666668
34.61736328125 8.922805989583333 46.50757575757576
78.14300805068596 9.239725847942072 97.63719512195122
105.5661564555921 9.353377878289473 70.26794258373205
130.12994873046873 9.05703857421875 114.04829545454545
10.689794921874999 9.137578125 135.42613636363637
27.955243210565474 9.211493210565475 100.3409090909091
32.947998046875 9.294803659539474 24.826555023923444
36.285798766121026 9.434633091517856 97.89772727272727
43.92429729959239 9.295473845108695 64.67391304347827
46.513787109374995 9.231296875 131.99772727272727
58.252060546875 9.166865234374999 130.7130681818182
91.0674958881579 9.225439453124999 65.10167464114832
110.55883789062499 9.13025634765625 98.9346590909091
111.66059105282737 9.364901878720238 102.1401515151515
123.52827808277027 9.371875 115.3409090909091
35.028745003633716 9.603447492732556 52.07452431289641
38.28476019965278 9.41255154079861 129.8358585858586
80.56151611328124 9.61349365234375 42.41761363636363
149.07835984002975 9.525283668154762 49.564393939393945
21.32634055397727 9.824493963068182 126.78460743801652
35.655352925145344 9.719233739098836 103.9085623678647
41.26879123263888 9.833960503472222 131.30303030303028
45.29285519622093 9.835019985465117 109.19926004228329
47.845888157894734 9.803474506578947 117.70633971291868
79.3122814360119 9.769342912946428 90.79545454545455
134.5492663871951 9.70760527820122 109.36529933481155
28.0283868018617 10.150787483377659 24.235976789168276
37.32612205038265 10.160833864795917 121.62337662337663
66.0143907912234 10.094705784574467 66.8012572533849
67.77581985828488 10.168756813226743 128.715644820296
82.12837646484375 10.147983398437498 103.4090909090909
116.63133697509765 10.639457702636719 113.5635653409091
134.56300330528845 10.09278846153846 102.61363636363636
57.51031967474489 10.38795838647959 61.314935064935064
71.86558136635638 10.512202875664894 70.55851063829788
76.85366091844512 10.371922637195121 93.80543237250554
81.39906377377716 10.409657353940215 96.73418972332016
81.49673923399389 10.407638624237805 107.92960088691797
82.33005814985795 10.423548473011364 60.816115702479344
85.91495564778646 10.561663818359374 61.53172348484849
[...]
POINT_DATA 2752
VECTORS displacement double
-0.0010828815238390632 -0.05836097629697201 -0.1631828997757765
-0.15111404427564423 -0.06783811783562521 0.249787129445167
-0.02141090604046525 0.08680439620208275 0.2943131160477819
-0.14483366266452435 -0.2692622488197491 0.11905041532816085
-0.1086235445931294 -0.03502076136787835 0.30803989976851653
-0.10787905484268379 -0.053856419993222104 0.2326388168979605
-0.16006582360533628 0.010747984392793897 0.235157618861777
-0.202512405736627 -0.32602120054570405 0.6153659621183465
-0.17037890646250275 -0.10328316806006999 0.2839892112560847
-0.22801329680613946 -0.11072984948015496 0.23979489887065597
-0.07858092938343475 -0.016717587640365905 0.27373946826931217
-0.06859165968238301 0.01624911919243166 0.2604322080275949
-0.20142365447095045 -0.05372149871309784 0.1769627169704222
-0.15709700848087493 -0.034329284708958574 0.23137968772080342
-0.21194863389247587 -0.08314016304138527 0.1668165691791046
-0.18390025417262734 -0.05762308631464341 0.27383245508055154
-0.21122223186403488 -0.020580108319475432 0.027989224597405382
-0.16055827743092266 -0.041898127883674086 0.31314091121313936
-0.08202473441653524 0.018346374311662528 0.35727389639298224
-0.21687999684057502 -0.042498721716818455 0.32810984840422464
-0.22378285996979486 -0.17809620425926576 0.17612790876789575
-0.1277820068544031 -0.10996575966096556 0.12402512416207401
-0.08114177889950724 -0.08473718299313182 0.2831658577231906
-0.1757339189438909 -0.012093659424104342 0.162299198584833
-0.14000366650367368 0.015069275611102828 0.21637784514332736
-0.07688122900628969 0.10437875287161091 0.26838812824016145
-0.14447726192487664 -0.05659144233177038 0.334339778634714
-0.09054732519011566 -0.0978571214416073 0.3391162421619782
-0.05280181592338806 0.007115194136748215 0.1805682016351824
-0.12030403401578837 -0.1175655630335739 0.23995631671888873
-0.13791462790948117 -0.10643491351867995 0.3329721715505798
0.03374052637796865 -0.0014321759973325854 -0.20762897179512407
-0.18633910360936312 -0.046417888199703494 0.31162734042327145
-0.05795553694326827 -0.06864900442199229 0.2497340813440303
-0.0018392901521817606 -0.0453607383475747 -0.1775232273722267
-0.22322137888618698 -0.05478598083133912 0.12397596656214205
-0.1893281472397632 -0.08751253119364932 0.28749526563107963
-0.06511960611376821 -0.07222230882931635 0.09330642224443864
-0.005552380838878435 0.008888397095284883 0.03324497368030421
-0.022434323715145865 0.19003849734428702 0.18459346207852434
-0.1562298752646143 -0.007546905204366627 -0.012204342267793322
-0.019941271962142793 -0.05291406647745234 -0.0972340538963472
-0.10890562609189658 -0.03721537529467822 0.40249879363624075
-0.1768855126615776 -0.06385599748125648 0.07283420242502814
-0.18604911557663684 -0.15936131690566713 0.21095827245520127
-0.020445960205165647 0.07736577515485754 0.3379814586317522
-0.12393237843906668 0.026928555086558337 0.139042112017691
-0.19359004964908166 -0.039363970774691115 0.1334918695971794
-0.213275143799585 -0.07687750941351146 0.1854160209040998
-0.1379811046589623 0.0012891304521125413 0.2727278963980382
-0.13594328834925307 -0.08549667438546216 0.2989307851027405
-0.034961332162581016 0.06489241132466539 0.13388973595360198
-0.1582924429517405 -0.09620255434393465 0.2918704257410951
-0.12989969373716548 -0.062452839846326214 0.42373347266787675
-0.08059128536571336 0.02635945399157169 0.2614096027243207
-0.2709708405358313 -0.10846322002888975 0.38651197294518624
-0.1622664384705388 -0.16552557126196676 0.10143474729527213
-0.14894644102487575 -0.08402123899989045 0.255102676199499
-0.17428159308911972 -0.0159092957653586 0.2793072274521222
-0.0419185824502506 0.009705704601903342 0.11777175917508487
-0.16108040430313864 -0.015739640217791617 0.35567766197108597
-0.16545205638489335 -0.07688187307889827 0.18651127481207652
-0.1596806518592473 -0.029907797388426083 0.3555479221560063
-0.09747789137577634 -0.019372628252630086 0.27512168126796155
-0.2245941964024496 -0.11727395572276755 0.14329095419445537
-0.006157684355301285 0.021897045261601633 0.14553789234085457
-0.12954384693988175 -0.042436076809919676 0.2023104857097877
-0.09619277261960946 0.05643757075493028 0.24162096558556811
-0.052638205241020586 0.014728311259792903 0.182825963544488
-0.1094058238991451 -0.014551276705028648 0.07295000011740171
-0.147286195585572 -0.05548335739679544 0.18388158161118895
-0.1883570083963093 -0.020465018652479294 0.28776552426738533
-0.07990832961516503 -0.059975034038173725 0.2322362333525092
-0.016276816405223826 0.040158734774495386 0.23462542111293772
-0.11902988186854557 -0.008925687708745578 0.05324822593294698
-0.1808213910195704 0.045548078416977944 0.036350712598988366
-0.14370504470017664 -0.05314561417115993 0.0008146224781029332
-0.0017536575923529085 0.10386964563358614 0.17464048448997005
-0.25300871288899174 -0.16583609198213534 0.13409035598324692
0.01860118705695868 0.0874089718385207 0.20882059924296215
-0.04069463685488017 -0.002469164829069115 0.13506611100383736
-0.12554487827128824 -0.008930850993475126 0.12902869997290622
-0.14898450429745047 -0.06236859993999122 0.10169851202323343
-0.12402731842493964 -0.04150940850740881 0.1407346823951201
-0.25934925227469563 -0.1033054135646676 0.09698206242903495
-0.04217293102941255 -0.030369570873095775 0.33203821968379543
-0.17016452178025432 0.042524112408104386 -0.03584398598293603
-0.20160043390760052 -0.16450476159863836 0.39669839389407
-0.11258293406986297 -0.08725988290276199 0.1995917931657516
-0.21867434572966715 -0.03612414184478041 0.18665368618212597
-0.18930044498388554 -0.06976949204717808 0.3978168027189639
-0.171708840814091 -0.04074334159579962 0.4636276166517632
-0.06018001413715268 0.09383010388865731 0.203491565603926
-0.17629688585820702 0.01128749206484958 0.22589643168794282
-0.1680731079007245 -0.08511676320045414 0.15805468864212457
-0.10868025416013438 -0.11715454918704538 0.23741860408769355
-0.137659230440903 -0.195074301287403 0.20401269538331235
-0.0717545704463447 -0.09051175930505906 0.3566293929093831
-0.027406094109352352 -0.048789233694814804 0.13406425795589882
-0.005092638313655584 0.0746225015447406 0.23796352635277174
-0.11601665843581799 -0.05090898190013249 0.1729133453281122
-0.1904358683514431 -0.008857600140557587 0.06248757863286869
-0.1651003176248338 -0.11603408352178857 0.2069130670344066
-0.059971170936876206 0.09185680937151908 0.26659538538006444
-0.07567065961883657 -0.011691467177182169 0.18776185636137654
-0.06080069969945878 0.09183828529711136 0.19526421886023826
-0.20064474382138897 -0.04512950771905455 0.25679818673128807
-0.14005098813934325 -0.006156924579967082 0.07199361994122455
-0.09351026038187626 0.1265727904676952 0.26862890088395375
-0.12676869447226125 -0.13180844254720547 0.26408752751778763
-0.09001280637941278 0.07966616445425068 0.29297972033105424
-0.1542494540503334 -0.022442117572326836 0.17287935650607267
-0.1221196685333723 -0.11486088477538559 0.3547851309537009
-0.08413158316265523 0.02572101858549125 0.31204906122356135
-0.15008528479854988 -0.091743430755991 0.1996739174900739
-0.07001386886943806 0.0897264160716773 0.21388720845097708
-0.11850468897362809 -0.048041417057571145 0.023984046846337037
-0.1390778521973921 -0.037683002371149854 0.06694112274716701
-0.14079276077011826 -0.05399801130459636 0.23355188335625598
-0.1247704383471131 -0.07699812555038932 0.44910688455158265
-0.14906701154293955 -0.146934905301646 0.29343364233449165
-0.042895843130708045 0.11286345540261333 0.38912329495918385
-0.029823092851984256 -0.05657874813174857 -0.07158278657531625
-0.13714436010293163 -0.028808761096703606 0.19671051353515168
-0.007275721980079197 -0.023507123583320855 0.18354778103993397
-0.20161591665743828 -0.005053263069671132 0.01798818318280837
-0.15084012439182004 -0.024257680412386406 0.03849684286706179
-0.2227484237290014 -0.11261796751066377 0.2735649702761975
-0.04596208811933877 0.04409883365029188 0.3513309176086352
-0.02709897700722763 0.05744232495258217 0.10739694713615222
-0.037834779417603936 0.06702053712074019 0.12803245389492446
-0.09674569014890722 -0.06822967296860405 0.1753167867887555
-0.1920493773749996 -0.13039265255022592 0.2547428549696349
-0.019824229683862882 -0.011198558302625727 0.06205292857674749
-0.02097972606709675 -0.009486476842415215 -0.12554705176172476
0.008754820008746833 0.008050770942068297 0.26454630708832383
-0.13156262726154289 -0.03169837434877287 0.06756531488952078
-0.1983826761409233 -0.1618210772736841 0.1758047263380007
-0.14614715363036623 -0.1309877858979327 0.20675265075385596
-0.07331186616458751 -0.1107890290680853 0.31774393705670434
-0.03706047975961724 -0.08473139791377271 0.46481944092117544
-0.07535648531374761 0.0020990692799234267 -0.3024523005932451
-0.04342173339669131 0.07750504971002492 0.28888322670109545
-0.15757808051550626 -0.16343637743726802 0.3248563189475675
-0.11984246614935046 -0.06748754688911696 0.24811702910896827
-0.008714009653346011 0.09568910508201967 0.07912144949781919
-0.07324824791670004 -0.04122423799788422 0.02783090394987653
-0.13594714544053943 0.006522338647886983 0.10315596636091584
0.013365650641276261 -0.04019708841343572 -0.19260859741411807
-0.11593561959246301 0.00932924040769123 0.01888729930585953
-0.08083597375322427 -0.03216757442667095 0.3124565713814036
-0.17176706431747135 -0.0692504253392805 0.34300434627414234
-0.2043511401653859 -0.09173751682248366 0.27336338659173975
-0.025789426972679053 -0.1372348646638315 0.48784818765211924
-0.08792934191964719 -0.05602123304542239 0.14754996743519655
-0.0839103001354573 -0.0016139286616745352 0.09472600620935623
0.05406698978930535 0.051425011006509536 0.12697561825859793
-0.021112577406739774 0.14502640226885433 0.21691663642339876
-0.20608150540298453 -0.0695815928752399 0.1253005459778933
-0.028755223448328593 0.016940947322892086 0.10362960428305001
-0.06406287951915601 0.1101972939275182 0.15530740696060974
-0.08014015845548883 -0.03834068355970821 0.09507436276210512
-0.14230271203435763 -0.08115773242807478 0.21567735860378434
-0.20516422887816077 0.009654712625319917 0.23571679701530002
-0.12857847436506376 -0.05611639940848079 0.08050947489253701
-0.24750762093149348 -0.04013166623107267 0.1373819043639628
-0.04410145805232446 -0.20123273206167092 0.117492412074796
-0.02158327982212427 0.06777980016140717 0.04079428984665867
-0.011474502981400292 0.011083264925703773 -0.26629557349428623
-0.1588327741497082 -0.06485962882424623 0.050702695809050624
-0.15362720243803096 -0.1742887359546117 0.28497774235476925
-0.17357029170244687 0.0009698406134504012 0.48561601825045386
-0.18294566165202752 -0.1388944811722066 0.23773603949581457
0.004663735562061788 -0.010289697391975494 0.22287977204659626
-0.07077092891069015 0.0999856374345569 0.19190326484961417
-0.10876818518045184 -0.053927618239706376 0.43738402032474255
-0.13463852114725228 -0.17905206803202844 0.10460302097452256
-0.1356227626294526 -0.1505153071759402 0.275613380609002
-0.1470399890076095 -0.13493714077063323 0.36886521057597577
-0.16130765422536797 -0.22288618756455847 0.1663486381583681
-0.10600158834343176 -0.0647935988816144 0.3254233874795176
-0.05293867428399324 -0.041206250274733236 0.4413245053703463
-0.06751024420799467 -0.10338507647523976 0.06633798936410074
-0.1611688354857037 -0.060481247475271616 0.3995095303830567
-0.1928614837244922 -0.11004886416005988 0.24281779619630584
-0.015373036517303262 0.06598963230730348 0.4061301655585865
-0.13341837878589047 -0.0810656972783157 0.18665131368828725
-0.17871712930366357 -0.021997252729434535 0.11799583215693588
-0.12827782953100098 -0.15955635885595498 0.2488703342696681
-0.13704662209729435 -0.1026704975992061 0.4101150022879523
-0.05373502406563091 -0.06076333214040375 0.6079409400363218
-0.025841446772762566 0.13869012016537852 0.13741029194389398
-0.10629359288002505 -0.025034675985757815 0.025376856176407614
-0.11082425947111574 -0.04680873248392459 0.2012010607157606
-0.16270774879452432 -0.09520926310080924 0.10273182604439057
-0.11394242358247197 -0.12896153609043282 0.24945931315444625
-0.0828587996735024 -0.04537360164920479 0.10728473680055117
-0.0008950936249192409 0.02279798481926676 0.08608242205194472
-0.03458384874218989 0.06627177619682101 0.16160560320905404
-0.15627468154635693 -0.09316047209729916 0.06278832144447222
-0.164254693815721 -0.21887100699808215 0.17655409232082775
-0.23918868707177765 -0.04175930053290422 0.2028363158720481
-0.09744142006447021 -0.1843555074105261 0.3562443753876181
-0.008636622059071897 0.04203639112975566 0.3360839390134842
-0.01483035799226684 0.058239247987527776 0.24890948440408067
-0.022494509979523514 0.04626511277139933 0.17462508797937204
-0.07315095856431242 0.1001306351408342 0.20408149752533689
0.0027528898906155064 0.0684548224544006 0.16691707212521578
-0.07018319056755473 -0.08980025381970691 0.09235746663040345
-0.2409950969117567 -0.01809059088879117 -0.02808592932602494
-0.04816525002658523 0.05716629981965582 -0.28565685560044685
-0.23619666350424495 -0.06346733305538876 0.11443599509743763
-0.06645561249884935 0.10700329228632732 0.29572354187122585
-0.17747190611439834 -0.07008833168089801 0.23382539625708887
-0.15015208822157433 -0.12633099245400814 0.15141181568203876
-0.10858201658867017 -0.20676464784617288 0.09378344060750976
-0.16972666424206295 -0.19015615538260988 0.2997050453528942
-0.13247987975100273 -0.19266936411792912 0.23842243261491092
-0.14817755985105308 -0.028970987212344923 0.07215283488471869
-0.16897080705453504 -0.019361472918895117 0.2647923892438513
-0.05048791399495656 -0.112033671820857 0.31227147845061154
-0.08792373922256047 -0.2212921352786612 0.14227258916885432
-0.07304684417056251 -0.13944667836967284 0.1507192598056264
-0.054301468370027806 0.0064789941181349064 0.26901598443973285
0.020389220368173255 -0.06293313379354792 0.09419445234465229
-0.033676803498863705 -0.03335245699786604 0.1711420236674286
-0.04165947121050806 -0.01893759796422856 -0.1453279773554712
0.025523503281434046 0.13685672508728608 0.3037907785494909
-0.03244864607211717 0.08261578467579511 0.13680821759187012
-0.1303893835682004 -0.10512949063948618 0.08330872861861849
-0.1525273082032328 -0.06998798976184162 0.3501309792021914
-0.13532993645436875 -0.19216302094562288 0.32346204409108736
-0.013073296473024243 0.003974626635125489 0.319057159557282
-0.0483445292137219 0.0669781266155578 0.21228189995460411
-0.14794496887717656 -0.07759350108276486 0.16515111480597966
-0.06509741557441373 -0.16212125939670408 0.3898865291932907
0.0012639119493798034 -0.003295233347941462 0.34623160830388144
-0.00929049283729455 -0.02026113049497802 0.19457888538613588
-0.10663264892944824 0.043455822521666576 0.3643464055229728
-0.05147333999310888 -0.12892427693151198 0.19541961945623143
-0.0036206043589999126 -0.022991084031154685 0.3979049295708421
-0.006943868701426936 0.09264516838880255 0.25245928385454874
-0.05807295986974381 -0.015788692173552832 -0.28430445448107733
-0.00652959139063114 -0.10256698864115421 -0.3373119462736831
-0.05916757520540017 0.07025118279102038 0.2433414341357647
-0.14411625356607516 -0.12313824703646858 0.3694504503500866
-0.1183005708888416 -0.06491908428711568 0.29496642797444395
-0.04420709176174853 -0.03888962504496263 0.45752410316834613
-0.03494635583166428 0.04455555802963573 0.11164504762091099
-0.17768936963847892 -0.11144576424412911 0.15285109775710737
-0.15007595000819407 -0.11159208675133314 0.4350689919289863
-0.08191733456112615 -0.06914402243495488 0.18360307814694465
-0.10655902494080749 -0.08397466561099343 0.5818093072122679
0.03504938595104079 0.007672512693387645 0.29814781698807735
0.013279972235693549 -0.02222435615378693 -0.1032933279565853
-0.12764031987710922 -0.027481920694853557 0.21165957479928466
-0.08679661042440756 -0.02902988839136178 0.10051256956766963
-0.017475197589448044 0.08859785426638034 0.26624800355401845
-0.23109402700585946 -0.14743310883130256 0.02748525164086857
-0.1548481980064409 -0.14081783063482511 0.22823295133220256
-0.16000632630919398 -0.21278514518781044 0.1801728527996289
-0.17699434013061932 -0.16475311840687468 0.318845787434725
-0.0859360103784752 -0.24028666973191726 0.0096454736120819
0.0040533996317435594 0.054602392831274216 0.13039029924656376
-0.16576909738751056 -0.2896310521923642 0.0760330875371551
-0.06511299909591628 0.07927557592831036 0.35503965291952966
-0.0034866852301576046 -0.07986487655873376 0.15632966462652576
-0.0733014035825903 0.08013220223497797 0.19250910030362434
-0.11713498256956711 -0.11689133659256612 0.24826186558597385
-0.05102478055903248 -0.20473996495286784 0.37671064350976735
-0.05882078608527763 -0.15640641706619363 0.49281091632738594
-0.0009424910827107169 -0.0784889578716097 0.27350117654043515
-0.1989911561729798 -0.11655077779978562 0.29603129941085626
-0.07103934850678684 0.04326438965880719 0.19943244817606853
-0.03217927728674397 0.09929113274610302 0.25478136555058484
-0.08706446942397861 -0.16113250280389657 0.40735386848839994
0.00434890169709945 -0.10611056584912504 0.4091929470252609
0.04058221794468153 0.0651297818392731 0.16793764383844945
-0.18816465993707254 -0.1151191888077534 0.1671460572995045
-0.1709278522821549 -0.08712115610351212 0.399733298709009
-0.1567450645477635 -0.20642162816346854 0.24879701840791313
-0.14007301903905045 -0.04225531180708941 0.19337543730451046
-0.1349244279369799 -0.12576566009360235 0.3860789256825399
-0.08220621884476031 -0.08570436486238009 0.25917812923636774
-0.07115189523419474 -0.18206006916285133 0.3345395546085683
0.3521462408153013 -0.8285983770632868 0.7743648189185564
-0.15870144703038136 -0.22662724139223656 0.10382219522109892
-0.0555221756811477 0.07184857373556852 0.2608989092570795
-0.014213042471396875 -0.08640277412637332 0.20143815693766953
-0.1841278936683466 -0.03157790278443784 0.04046770473676986
-0.03971531264049588 -0.0018579137724010764 -0.3030574499080281
-0.2115369024565723 -0.06744651712732619 0.17578847412707432
-0.01281795030068622 0.10086607108371837 0.33764250207880053
-0.15226240075600828 -0.15037818365576783 0.35711539062397435
0.013143908234823698 -0.025551449150334804 0.12535410419092585
-0.07398522234703364 -0.19860678886957928 0.30216363193089535
0.010577056799689899 0.036139032060432896 0.19955769443621563
0.04978080359909143 -0.119752397664044 0.26640006256309334
-0.07395834721558003 0.050723469646641206 0.2672379365719024
-0.09582527123222917 -0.27005710250421444 0.3886282183369758
-0.10909138941780228 -0.074952472846185 -0.01453425006478426
-0.13403596842833565 -0.24466448571366328 0.2493750904905454
-0.10801878609787252 -0.09587099521858278 0.15042281642217858
-0.007223713936809872 0.10097191269110795 0.21654844605986767
-0.0024005826300026456 -0.026334722128567023 0.17474462722695705
0.0493128227861348 0.0876407297129127 0.254058717673999
-0.13238815356877964 0.002244340920274368 0.07683722963400896
-0.2411296795178295 -0.034063268318401896 0.08771745065342884
-0.09583193885227104 -0.16866778420523687 0.321567047222274
-0.18137757588120706 -0.07973364278268846 0.44482972327142534
-0.1578133413895415 -0.1056337455586096 0.39938138129534195
0.04326351338450252 -0.2971734087256479 0.12471201608161664
-0.08615064085893209 -0.18556869474785742 0.16014388557262293
-0.005098060250546155 -0.015374394608336672 0.10438319489362868
0.00394329288003803 -0.032386752240480376 0.1250581097020671
-0.01824365902254499 0.0588097830792087 0.10826027877837419
0.04286139742831674 0.05879226646264968 0.1972386844716567
-0.24713138231520304 -0.03220496541754869 0.17884640904732407
-0.14691444211193527 -0.20657345505917135 0.13781468463288604
-0.08386583681932791 0.0073089621604225385 0.23585292367079802
-0.06501047919061875 -0.12546363193663623 0.4426340012854837
-0.1834624438807424 -0.05423047158918948 0.3771199029021375
-0.018155339966241968 -0.04091420608074614 0.22852255822729717
0.02216282915640022 0.005569771536293899 0.1320603084136991