# vtk DataFile Version 2.0
Surface Displacements
ASCII
DATASET UNSTRUCTURED_GRID
POINTS 9000 double
63.268752447726705 75.9257539284985 24.4608283644591
63.324131805846 76.2304790304479 24.4894874768749
62.9281968914783 76.11249224551091 24.5568079825795
63.4114119720375 75.682918259135 24.5190080837468
63.64606266658421 75.91098610557441 24.4271190571354
63.7950974183288 75.5465187479433 24.5580085080272
63.799388206632 76.1865093538994 24.5734089650312
64.1380735275636 75.88659403244571 24.5954386533904
64.2262989650096 75.45405128398829 24.656256697037602
64.5935268385198 75.6811087920732 24.769813465507102
65.0947731382916 77.3978005440817 24.8897700085989
65.0603380810904 76.9458472316735 24.8740134844266
65.2697969712794 76.9687425578741 24.8882392910994
65.3429331808405 77.51393627938221 24.951097430030604
62.9520402472487 76.3491555913362 24.514126985419303
62.6201120122647 76.4656388338264 24.698891913656997
64.1221676220192 76.3772960671523 24.877430443031997
63.0185492179779 76.60152515820509 24.6667272657548
63.540975935183106 76.5547290491093 24.7783194853486
62.73332242955421 76.953226498053 24.8654119419544
64.5188855986259 76.06689486779791 24.833961871574804
60.7621817388044 73.04635367349209 24.4762322391713
60.5263020156221 72.78271554513759 24.3739040528401
60.794701916567 72.7155268234989 24.2269928116462
64.8597283324224 76.6432948371581 24.9718334211235
65.1020148346502 76.5773202969996 24.91770586725
64.95598967094621 77.97362091982221 25.1272932496006
65.4330084423488 77.93052408350759 25.1581595913343
64.9315070831371 76.10926386943109 24.965033707748297
64.5679089106785 76.4265528326665 25.0139541900414
65.5804749773376 77.57857574015542 25.0939349639658
64.8512825006554 77.1285002110699 24.9645715987174
64.5448127451264 77.22751462361809 25.119480953344898
64.6097987182424 76.8233668823063 25.075758549412697
62.5147056140816 75.9906167789713 24.8430533124079
63.01999158253879 75.7464026064799 24.674138746031197
61.0689638295605 72.7804022487054 24.2487375789426
60.862421297070895 72.4167395764876 24.1965729640994
60.4806096862966 72.36504142985692 24.3280575660917
60.531226440789396 72.1179359895939 24.382116487684804
60.9305118224117 72.04068580730251 24.357543472286302
64.8365130434214 77.55006828343691 25.0163767179998
63.98163108410979 74.9851733981732 24.849984554019
63.3429107892443 75.3179997191 24.802722892681302
65.31517376097611 76.43554368254479 25.0472993912848
64.5758022017449 75.0860794384811 24.849953596831497
64.9678291587652 75.47816464186229 24.9844170794871
61.16713938012649 73.13774744234101 24.515560638343395
61.370070059235104 72.83515851722059 24.359739577125602
61.4894800139273 72.4814210489703 24.369479860289
61.2201725228487 72.42514204803241 24.2320653571083
61.2746158063276 72.005429866415 24.4905129596242
61.6191592408582 72.8534775777836 24.560167849400102
65.57040847072079 77.01276745613809 25.1237336005799
60.605703869347 72.5599333529129 24.255417623686398
62.39184952186971 76.7861643764075 24.900465255922104
62.1286621735091 76.3516711076562 24.9775930927344
63.2046279560458 77.0109871093166 24.965189025406197
65.18149638955461 74.3836767534044 25.0036857048787
65.4789900318544 73.8508455860683 25.0269978118985
65.5653949466184 74.3593702777748 25.2056043144605
60.2748555184635 72.581485812616 24.5051605711862
65.7022905947624 77.823363611535 25.319049587024196
60.272484307005904 72.9682605347777 24.765770315218
60.65507192057589 73.40884033434071 25.002665667705003
60.093439180587595 72.20946252233409 24.675089927071298
65.8208766840548 73.9823155462008 25.164411900721802
60.981315120246705 73.35098390856979 24.7505217574766
65.01054015306171 74.9122570322253 24.995774222690397
65.8296377302002 77.4341261726657 25.3863840346383
62.8025795041712 75.5441716274203 24.914357607753402
62.905413928294294 75.1425103136493 25.086083388042603
60.931649831623 71.58491565724991 24.8818557632573
60.5560914326362 71.7578712694417 24.6657420602791
65.354588744901 75.8410411592737 25.258986357606002
64.9673928452613 74.06458110459009 24.995029026235798
64.0079851676979 74.3576644169556 25.172955443252302
63.4586044768423 74.7623500509214 25.113144524413
65.6316219407138 76.3645813220393 25.388614770155396
64.0489426084051 77.74307761851979 25.229646506702398
63.5856978307789 77.43068864974829 25.1804964939675
64.120056515296 77.301776109369 25.209373576089
64.8236634677346 74.5594611082815 24.9341235499947
64.4831498434215 74.4676696908488 24.980206586964997
65.26136435963829 78.24224967284091 25.3853998360956
65.3287272113458 74.755540279231 25.1758367715735
63.6632817545827 77.9431351575124 25.235257282954997
61.5204698093349 73.156456598746 24.711063716293697
61.5418591256322 71.8996218004141 24.9212146536988
61.5862484853376 72.2243907544717 24.576812824998
62.3216712124742 75.57486065318321 25.0805487080084
62.1367560238135 75.9847609936963 25.0057059163626
62.509588918926895 77.2476005225604 25.1060258604175
64.2841009172984 76.8044180755069 25.1293103543649
63.0428102320992 77.520561403418 25.117928810743603
64.302976050059 78.0867915982849 25.2312358600234
63.779543535158396 76.90323898068621 25.086224033743502
63.865176864240205 78.4122483978526 25.3801242332208
64.48593142540999 78.3680190512176 25.3412880272841
61.769969401765394 72.6088960127066 24.7000659816145
64.51352523057771 77.6985234254023 25.163207072634698
65.3180552568397 75.22905692834841 25.254230340001698
61.892745520030296 73.1694111985707 25.068034306925398
62.071108436430706 76.817679510596 25.1654455612345
62.812827916306105 77.7462750389383 25.2322904107013
65.8746857183358 73.65052673855341 25.0689543753373
64.8147000265551 78.4808510781018 25.526388706406003
63.2431343502184 78.0968120937643 25.287532927537697
65.9382671508317 76.8586619135576 25.6055472330752
65.74904069075279 73.30755194503101 25.1527887372966
66.2109971295485 73.0151082314988 25.370095091213997
66.30286839276809 73.3217841008914 25.189993979034
62.9883961989876 74.733305570629 25.3155679535833
62.4136434302417 75.01972420473871 25.342233648544603
66.1526793453732 73.4989597631028 25.1282057454942
66.0837245924619 77.3854660962687 25.7484253165561
65.99165247712871 77.8163348911847 25.7714395984579
60.2213105826303 71.89638630815021 24.6764943513901
65.6947077320266 75.9230176434853 25.611317830668
62.533110063231796 77.6597264522459 25.342687605929605
62.1512638409204 77.2979217560313 25.4036470704908
66.2587901264452 73.8402316008397 25.3055079968659
66.7570816393336 73.56314235388129 25.354334888334304
65.1822533758636 73.5637617738212 25.1422215350489
64.6064949052007 73.9252776621885 25.182097406528502
65.69705451917861 74.87900526559841 25.531558705592104
65.6551342390582 75.47262991849921 25.6147269101543
61.3232493582337 75.8515183078078 25.3230618595136
61.4140054562266 75.4460886900023 25.326296964369696
61.797302214377204 75.8493326307974 25.148471921678
61.9333555186261 72.3523523385157 25.109741077649804
61.8905857535064 75.3274327080105 25.287222184036196
65.6223815529592 78.13835544641009 25.565124228113
61.341149965819504 73.3990985021012 24.8890940094331
62.877507562652504 78.1231579523287 25.4253644306902
61.245854768582404 71.61893659662509 24.972991669135197
63.3383216924751 78.5355772025215 25.5054604001388
63.705522707579 78.7781671991128 25.6501181986956
61.6716541358819 73.41389699208808 25.0757037281438
59.894851099336 72.6179351235377 25.0024970478047
65.98083778606 74.3265665696957 25.4717883212425
64.2003604523751 78.7072400491072 25.6387963247588
61.5959097185153 76.3709642877665 25.3275449432546
59.981127464454005 72.96969029345391 25.1252894392445
65.3362647110069 73.1355290788493 25.395951971591
61.1561808297309 73.59215574086691 25.1037309065243
62.6826493243998 74.49485037506659 25.6134138018853
62.172415316479594 74.68609890876151 25.5977453776435
64.7684560055485 73.4352660564816 25.5421182624925
64.0868197783734 73.926104449515 25.489103027979002
65.88925965863811 76.2540380215429 25.723781986502498
62.4043617695844 77.9893622958817 25.697063555431104
61.849091100963605 77.4466209705852 25.7342778185297
63.3629729697451 78.95274555681691 25.871720936061
60.23971401267261 71.54059643087709 25.0564721740705
61.5412154303835 73.610723466546 25.2104230264645
61.197146968508996 76.75984201713591 25.7869881620719
61.68025499847779 76.9633971048611 25.5601715376109
61.918295776821296 71.976352431935 25.569304812172103
64.4430724756886 78.9622969131112 26.109413648228102
62.0694784985412 72.8020382826976 25.1734519939923
66.9037093083051 73.28820715884159 25.3726351868632
67.3315168845277 73.1768854776458 25.533862332870804
67.3510622055631 73.486197383337 25.5554897674646
62.984604981907204 78.5947494409699 25.725091440332605
65.2337855685671 78.5573073885456 25.903320788169104
63.3915922177348 74.3055714754642 25.4899330389921
63.580132374162595 73.8696533331984 25.8447006903978
66.2805015458073 77.56043085929359 26.0667914248453
65.6760092500679 72.7855251555326 25.577539211792196
59.6985014093307 72.1526469401937 25.2625162412651
61.00520423827479 76.1710977660441 25.617997157964503
60.1931001863374 73.2882046526237 25.300721450153304
66.8154746396589 72.9478459259956 25.5389660972298
66.8831355287004 73.8989677662274 25.6291022835434
67.5160124077993 73.3396898670849 25.594699153646303
66.4821617263556 74.23897417284729 25.697226577171698
60.60892190612129 71.3133722061651 25.330621770774304
64.1605499298029 73.6159808958511 25.830143761290604
66.1768671191587 76.3362061697447 25.9140798109229
66.5166388699148 76.7141080800072 26.045077412667798
66.2434716965835 77.08529968768009 25.9413916344515
65.94384152596379 75.76405877835658 25.852631880166804
66.26649806956671 75.4027014359783 25.953203255938398
66.44758235939611 75.9782982177276 26.0003272868466
63.7783622824016 79.0693812661277 26.022718541693102
65.1758598865547 72.7887193441395 25.910339863749698
61.783057479226294 77.8553253567875 26.0419594457087
59.925172545822896 71.7384197191825 25.1548213239857
[...]
POINT_DATA 9000
VECTORS displacement double
-0.8868639918663916 0.635431031313658 -1.6575933930893711
-0.9097498999948924 0.6579895643073428 -1.6886637663073143
-0.917200170911542 0.6641773921060121 -1.6607256073208134
-0.8582091864563495 0.6039385852689065 -1.6365361381519108
-0.8671777346039562 0.6159198771929368 -1.6693064396691852
-0.8270164310875998 0.5696693097312959 -1.6347787105051452
-0.8804612549541844 0.6249893445587986 -1.6958219299288257
-0.8370749940743281 0.5789621241636382 -1.6760460880450123
-0.7958419397173202 0.5331656973414169 -1.6364981470877351
-0.7938980976930452 0.5270540876210816 -1.6642934218912444
-0.8887384758315306 0.6246369043398659 -1.7973802285043805
-0.8609093126988796 0.5953260076742595 -1.7677171386045534
-0.8488148911332019 0.582539061413911 -1.769131365400483
-0.8794853026029728 0.6131436970175628 -1.8019869573743392
-0.9370860179211604 0.6853949284110286 -1.6865211573497731
-0.9583311836737494 0.7020912605723879 -1.678488657880422
-0.8757088116900604 0.6093774273860504 -1.7125873645977947
-0.952862572861818 0.6965993587755293 -1.708298518007041
-0.9219458991651096 0.6610215835356144 -1.7168795127433043
-0.991663238058038 0.7296059948226912 -1.723865198173371
-0.8289073375910334 0.5618065123572364 -1.6949198146649564
-0.6798426918881546 0.4490240079113619 -1.1824272209820208
-0.6571598539904357 0.43078058066487296 -1.135816821609211
-0.6502470278873602 0.4208211012392553 -1.1482114817164302
-0.8523078816856469 0.5814683940279224 -1.742933347390334
-0.8323575750794703 0.5630112106999263 -1.7409799526647591
-0.9347712530345121 0.66260293985016 -1.8289226300624928
-0.8996215893354247 0.6257145633221057 -1.8214483060195332
-0.8079706118008403 0.5346321353806047 -1.7026489704127243
-0.8535802069453098 0.5809049591480857 -1.7216355356279107
-0.868310392142007 0.5954925571872991 -1.8012985689783818
-0.8871544195539514 0.6187223663652617 -1.7780618790571625
-0.9133649270485762 0.6392903398469798 -1.7800777751409385
-0.8806313516942623 0.6068696487483862 -1.751825048505424
-0.9186139877327832 0.659766261227162 -1.6213233598404315
-0.8794377292111335 0.6224327621833936 -1.623728451949745
-0.6533889540681912 0.4197488034662342 -1.174544188203697
-0.6209130781678027 0.3904371317746609 -1.1176149651347205
-0.6172709262502849 0.3921923898130899 -1.0840861861643134
-0.5925713627129312 0.3663953577372467 -1.0582941268472157
-0.5825495065689665 0.3490036187728833 -1.0762613505038985
-0.9161992913342942 0.6472727432891929 -1.805346513727756
-0.766918991490229 0.4962359450754548 -1.5783257395949877
-0.8258637248657124 0.5624673824118531 -1.5892183480715687
-0.8092923945908979 0.5330970342322985 -1.7298252356038117
-0.7455526087589419 0.4720006002796708 -1.6077335673335824
-0.7562947437085654 0.4782922118020565 -1.6506831586011683
-0.6836514530672844 0.4463422423098109 -1.2206894823608536
-0.6532748200582432 0.4139898453835258 -1.1999240120941297
-0.6173830957509381 0.3749379892673233 -1.1649556266511638
-0.6173348264834999 0.3807357051578606 -1.142185309821116
-0.574139267964199 0.33268624389842216 -1.0930026639703383
-0.6485823468692615 0.4029385111267061 -1.2155890011289046
-0.8335694081922043 0.5563870785949803 -1.7674862650266905
-0.6362664177370903 0.4095008420996464 -1.1163421991566338
-0.9912706097495628 0.7294017296765105 -1.6925500616558224
-0.9618342472639938 0.7007076443084088 -1.6343825790085873
-0.973166758506352 0.7070526087967437 -1.7420399157814472
-0.6554201284906185 0.3662632986591916 -1.5572415448508536
-0.5966042722122324 0.2982936129922109 -1.5158124041694805
-0.6346754697713664 0.33389151536965755 -1.5635970586103838
-0.6371219634598901 0.4145572365889052 -1.0930259574324452
-0.8766559191458896 0.5942174517042531 -1.8099847429890303
-0.6715394435794906 0.4475424649886577 -1.1345666859614028
-0.7089110653774924 0.4765313560879463 -1.2096296301588154
-0.5993285399662227 0.3805970390129119 -1.0355781113401576
-0.5908533333804941 0.2857387270075833 -1.5378855916337957
-0.7036359707513498 0.4672239760291177 -1.229805374043906
-0.7079632183254603 0.42507067652985603 -1.6013985846929302
-0.8458845303171643 0.5579248851737475 -1.786651649311949
-0.8667454241900714 0.6045870568214582 -1.5864887252998017
-0.8241876722527763 0.5565944876232719 -1.5443326981588257
-0.5339955455276026 0.29632272594892584 -1.0166596744457197
-0.5549694405622176 0.3271106887734732 -1.0152820887613814
-0.7636325605496381 0.4745585228012033 -1.6822877114069
-0.6397921741869936 0.3489140421375509 -1.5186340862530017
-0.7090892145030239 0.4235291948112376 -1.5077931462615195
-0.7682287084022619 0.4929928678848796 -1.5284296650614235
-0.7870479945036664 0.4940175684195083 -1.721000449020096
-0.978820155724634 0.7020235101880985 -1.8097366909588857
-0.983481882771855 0.7090527355563268 -1.7802413403348112
-0.9439161372983448 0.667306837161334 -1.778853126072221
-0.6883795165310858 0.40596603228112826 -1.56350359767157
-0.6975848986759843 0.41497510503756985 -1.5416077331910856
-0.9311740500984342 0.6480570275102195 -1.8366436243366595
-0.6788928699812118 0.3851074035045485 -1.5929085519807984
-1.0151024463735323 0.7382860372604227 -1.8187652317019167
-0.6774994723414238 0.43250103563156017 -1.243330570166762
-0.5561705699026334 0.3044446431871961 -1.0914189257418911
-0.5894041488830339 0.3417323827956125 -1.1377630028042065
-0.8838522274869547 0.6217763171335378 -1.5611886000520483
-0.9282883178571524 0.6679846624320476 -1.5964544483221346
-1.0216233777908883 0.7519608694055364 -1.7333381100122551
-0.8982449025394885 0.6232731188119374 -1.7447676643572263
-1.0187407315879111 0.7470575700348263 -1.775521314806042
-0.9853762563670898 0.7088918797255133 -1.834729482712703
-0.9340425109812144 0.6623780613244891 -1.744322780630711
-1.0334471547570845 0.7506639455070285 -1.84923708850161
-0.9907551670157771 0.7100997403005067 -1.8496952642472595
-0.6210633284264873 0.3700397093678589 -1.1936889517080544
-0.947073630264356 0.672547770328265 -1.8115779657271391
-0.7178673219088978 0.42485391941448825 -1.6322691575603017
-0.6672770669465535 0.4111977736487802 -1.2623190713694044
-1.001265146506114 0.7335480930379958 -1.6710257390051884
-1.045654487423178 0.7696114851095217 -1.7829752214421717
-0.5606508016821863 0.2552410142752137 -1.5101231572980396
-0.976330168222944 0.6876362567364254 -1.8510478198299156
-1.048880062123203 0.7697338945612842 -1.8203638163493
-0.8046577202295566 0.5028697880707682 -1.7497863856774811
-0.5406522615867857 0.22647016937241915 -1.4697010328911233
-0.4982620073543558 0.1640481465749417 -1.4539865402533962
-0.5147919842867168 0.1953184601796352 -1.4918038189419178
-0.7811071035472423 0.5063025704159827 -1.4987691437280546
-0.8257367243394924 0.5583199658403261 -1.4995713121390395
-0.5352339626993512 0.22292674533156287 -1.5046116709811768
-0.8308987944635078 0.524374770386828 -1.7768568764578276
-0.8625831746462609 0.5574345966443843 -1.8001071829601187
-0.5691024204867858 0.3483349821469801 -1.0086417317165228
-0.7527930509623388 0.4465871567186923 -1.686615704630583
-1.0504544199695829 0.771599079318321 -1.7620610195131974
-1.0355559689044185 0.7583073297800524 -1.7118518824222804
-0.5589585468206337 0.24192765789877055 -1.536394195456495
-0.5133970719741114 0.18611984097685766 -1.5260873659196081
-0.5884983278069171 0.2833872366888954 -1.4733727664190894
-0.6454227772414924 0.3489354175225117 -1.4868879709088392
-0.6718244586295441 0.3606075876437558 -1.6064912860636298
-0.720885177174182 0.41152784122562025 -1.6520809773582812
-0.9315988215637958 0.6729320083458674 -1.5242231723723876
-0.8914445608810411 0.6350065310488731 -1.4867686040529688
-0.9232998554618916 0.6633195645960086 -1.5587394443482478
-0.5896163869105067 0.32878666909624604 -1.1664993420376961
-0.8699055290381921 0.6092257143906181 -1.5046882700274011
-0.9026555465536604 0.6100259360053428 -1.8240464248480064
-0.7014346989258797 0.4578754215891081 -1.2574926149100634
-1.0687861556547205 0.7844672110348371 -1.8084149383695944
-0.533337931917174 0.28736232534657796 -1.0390199871825132
-1.0725467303371374 0.7838271534182581 -1.8466937823903609
-1.0664457111990373 0.7716426055198441 -1.8635911062807224
-0.6946745154475025 0.4432528340520889 -1.27729800867192
-0.6346815843124318 0.4190778313358123 -1.0640255837440975
-0.6132475527219867 0.2963606736532256 -1.5678091661429217
-1.03090877865003 0.7372573944180658 -1.862761170495105
-0.973110003939894 0.7077872649074379 -1.5950750275038672
-0.6672996681990071 0.4489414250480195 -1.1085763894707554
-0.5481188043929706 0.2238922701978936 -1.4302087982131582
-0.7197296840678291 0.4775145044900455 -1.263977884237022
-0.7653478926541766 0.4884458599391906 -1.4500159381917117
-0.7974245991992461 0.5297037579395578 -1.4431567415369957
-0.5974908437564181 0.2794606681302412 -1.4350953923265592
-0.6668211282266157 0.3665322913472551 -1.4588789805879399
-0.7669492868920997 0.4564420431818234 -1.7095015291486677
-1.0781547296587064 0.7863342633756361 -1.7727686898321622
-1.053850923001562 0.7682275719579934 -1.6994493274988258
-1.098489464501654 0.79332599810175 -1.8640097414630932
-0.5304848298001161 0.30986080909281105 -0.9642891108898936
-0.7139747061191883 0.4636939085785343 -1.2895358563234254
-1.0099367420134513 0.7358012732617567 -1.5949878945676232
-1.01979577376693 0.7439857163784609 -1.6509740941853297
-0.5501957922828069 0.2825348391901912 -1.11194247253124
-1.033494842908908 0.7188699873001383 -1.8675365885485176
-0.6279807246885412 0.3654349501832712 -1.2274709175780742
-0.4857560515789601 0.1515166139973303 -1.5053324052686037
-0.4607501989705725 0.11114602775319328 -1.5035793425194868
-0.4833673932990337 0.1382061966338597 -1.5304795810352232
-1.0954481578213515 0.7976832178901532 -1.836589350783953
-0.9559700489002694 0.6494865311976241 -1.8452918790897288
-0.7263976754269379 0.4397230310804048 -1.4678978098478694
-0.6781359963470663 0.3761473740858037 -1.4216481472957412
-0.8333804946877308 0.5113656361756398 -1.7801176917337784
-0.5069473713480761 0.16394645994898838 -1.4037060767821856
-0.5852843178858507 0.3771382650823512 -0.993983322208436
-0.9623695426067228 0.6996497518289857 -1.5279066180746101
-0.6952986548025137 0.4719316713185435 -1.1575945683411817
-0.4675840262340785 0.11723422406276995 -1.4658082648447532
-0.5379944132620835 0.19928877549159552 -1.5518504598135507
-0.4659145490625747 0.11405606850638605 -1.5207291330048631
-0.5844506836020287 0.25060463372443564 -1.5688266455210282
-0.5048347261983395 0.27444532824961243 -0.9572493432910959
-0.6359825151902783 0.3206119274059347 -1.4217168080398608
-0.7584822040619201 0.4375855976739445 -1.7129719364979792
-0.7664344350756664 0.4392150135836346 -1.732917851507068
-0.8048514665744051 0.4866593871027476 -1.7567684132584986
-0.7294106661017281 0.4091657324367475 -1.6738025424032514
-0.6867815347382589 0.3558074836664673 -1.64984453048055
-0.71965804310463 0.3898446576686183 -1.6895796359100927
-1.0815523362811064 0.7701669315852087 -1.872586732114968
-0.5295934293126834 0.1802533755223976 -1.3755713828617218
-1.0866224321241589 0.7889508779624066 -1.7224355052511842
-0.5476325079473554 0.33481927914340304 -0.9643820629037236
-0.8666228088245589 0.6141814893715036 -1.4335106970279412
-0.8471515691862805 0.5897028443218346 -1.4477608290424655
-0.5363217123704658 0.33554955692477506 -0.9346753243009118
-0.9005625972309304 0.5761202837774704 -1.8192042302087827
-0.4694832059193459 0.10421571170303423 -1.3973421370529309
-0.8631976422690286 0.6168145026069283 -1.3927313721178791
-0.910518432474248 0.6575469812211736 -1.45587666215215
-0.8884975602409213 0.6444556797279688 -1.3868400041282314
-0.6607471949733394 0.3903697874654881 -1.2846761052151123
-0.6170023153901525 0.3392593164958271 -1.2383148579666283
-0.5007660810584866 0.14414644931792964 -1.5438777322344492
-0.5000992680075456 0.2522792517678454 -0.9898346951598852
-0.5623298751762036 0.20329981061684066 -1.5772572597395822
-0.4475275982775315 0.08241802359691519 -1.4803367496030546
-1.130039184717191 0.8086510450780793 -1.8626895245823791
-1.112641351925049 0.8044338794873056 -1.8272158376282448
-0.5281997114203136 0.17140689805080456 -1.5584945699530692
-0.4681108564812462 0.0971484190668548 -1.527556752668147
-0.7386156559151686 0.4972549722141366 -1.2729436536744745
-0.7390378595837888 0.4875676652877132 -1.3150693024203122
-0.7170161858377355 0.4579706933216698 -1.3214521354232431
-0.7296228187972815 0.497389295904668 -1.2260695509988864
-0.7191243666595142 0.4967905965295358 -1.1856077333696928
-0.6976585896948677 0.43098619972352026 -1.3211764738153704
-0.6407751005818341 0.3111219284226649 -1.6008931106019588
-0.8316486134853562 0.5684719356173105 -1.4648029923300785
-0.6889414674099612 0.36461396980143945 -1.6343235286405786
-0.6164495789236071 0.41107291257162615 -1.0253325231552424
-0.6638739623628567 0.4512498372059213 -1.0956284189855978
-0.4974735012993392 0.2835782125694095 -0.914566542575102
-0.4886262463040794 0.2666246196061479 -0.9198939147426302
-1.0001984335648901 0.7307080370737253 -1.5331948888073723
-0.4436858892452733 0.061635406307914316 -1.426848983934292
-0.4943908329069018 0.2551392593075548 -0.9629499877990496
-0.7027321718732082 0.36499729278193627 -1.6898204290671686
-0.7442297881980267 0.4115590700741905 -1.7297025057953306
-0.5170194562382449 0.2591388323015167 -1.0376741561180722
-0.8515402611470222 0.6129098371172859 -1.342406813880871
-0.8213786299529602 0.5801488438706315 -1.3382946793992403
-0.6195322163328001 0.27805415096628394 -1.6056690751985627
-0.5794776168449971 0.23928876113200204 -1.3782671489652785
-0.5151396304252671 0.13601881100845506 -1.5547861194942243
-0.4445792596936258 0.062468995462779724 -1.50181363737957
-0.4295185974597189 0.0310179671640185 -1.4580910977435622
-1.1434144087843947 0.8151516582350382 -1.8421617937333965
-0.7168855921457293 0.3753105940103865 -1.7134159826425162
-0.7290702966789127 0.3895486982751777 -1.7281287857262555
-1.0574261181141082 0.7699716746900549 -1.652560828311465
-1.0408798610351937 0.7593536693420901 -1.595585474107196
-0.753784015035535 0.4190872931500849 -1.7427465517923793
-0.7784630278542863 0.4464952882926241 -1.7506844034366225
-1.1263965632144846 0.7971761256263221 -1.8773046275539969
-0.8924772323873641 0.6537304164814941 -1.3509784885067688
-0.9165360193334776 0.6682816728036869 -1.414738940404959
-0.7393440044372142 0.3990586323299681 -1.7373212755609302
-0.8072127080123437 0.4777330425138757 -1.7635523591807214
-0.6688212338794415 0.33282223648944864 -1.6496751606988769
-0.6438457592327609 0.3005818343850706 -1.6364024428765165
-0.8327448033336395 0.4936340190870396 -1.7803196715800595
-0.7100177341860672 0.4205891278954255 -1.4089042418034694
-0.7790440828039777 0.4404460679090221 -1.7555846765145018
-0.8050256393765379 0.4644186320457493 -1.7662715798834938
-0.8229685645735572 0.5726806268317546 -1.384179622420902
-0.482216479580643 0.09481064892810308 -1.5358651067790277
-0.5808980351068271 0.30337674720902896 -1.1807370509049235
-0.7640749636332771 0.4202242698204373 -1.750130261768021
-0.7555921129950889 0.5151852139247808 -1.2817930547244885
-0.6089196535285737 0.25459215164352145 -1.6114594911179552
-0.6479335648987785 0.2922328182380625 -1.6494943489802267
-0.8567827431235173 0.5271946513033754 -1.7952118182504933
-0.773599395891722 0.5232139426547633 -1.3404024051587555
-0.9501774927049952 0.6944707231776874 -1.4560037565062205
-0.7850467179212615 0.5424804561492921 -1.3158471539036611
-1.006588975948148 0.6718751683947629 -1.8612956971121832
-0.8071154358869991 0.547482369800548 -1.4138780748738211
-0.9549607768940404 0.6211047676245016 -1.8429128917455275
-0.6848097160216753 0.327306654741335 -1.6879515438724582
-0.6959479116913485 0.4196223096442395 -1.3406677369058002
-0.7652380301420294 0.5029275244073688 -1.3809367767585172
-0.7330672954103647 0.4633606658820781 -1.3692321119692108
-0.6551174549665575 0.3727552157849914 -1.2993570532966598
-0.7631313969449707 0.4912820833563387 -1.413915403558036
-0.7283239960274273 0.4492646134870597 -1.3923693273489448
-0.8340576411171696 0.6038649708141293 -1.2942485861420607
-0.8688307377672118 0.6321187158964108 -1.3362249355241715
-0.8565196394133068 0.6266533087737116 -1.2985775003845674
-0.8094429184720866 0.5761027849201811 -1.2957357794947484
-1.1101445455038856 0.8023322651799276 -1.7348189076891174
-1.1156084449800687 0.8042085289803822 -1.7852711086896136
-0.7065258601736559 0.3519901247262851 -1.7114260465884
-1.1030590842952392 0.7650661288821539 -1.8807023183709648
-0.756145518754181 0.5219580822480907 -1.2581449418263162
-0.9244301271896802 0.6785096117978355 -1.3936002897001174
-0.4168517826845459 -0.01968615471434987 -1.4620762550756297
-0.7872491179007852 0.5508507346287956 -1.2922870642599094
-0.4328585618886223 0.009112178665816371 -1.4935906032515902
-0.5913105127813765 0.21222230978031573 -1.6080452352007342
-0.4560373223250736 0.04627779192668413 -1.5168724809025207
-0.8330104229032713 0.4761891666822749 -1.781034355401431
-0.7235333012542355 0.3684545304403741 -1.7254742623730408
-0.6737860936077595 0.38379306575888 -1.3435560406378502
-0.7985547626036009 0.44553688267291136 -1.7654493217760034
-0.6598049156349362 0.3556232920494153 -1.3679177804308154
-0.6298088972911273 0.3092295026674492 -1.3820362060735365
-0.8666741571012722 0.5174304707668398 -1.799097644715232
-1.1018697874806094 0.8002678908421217 -1.6727731697141053
-0.7475936409317114 0.3969666836910619 -1.741199465238452
-0.4737307878398269 0.0959085947158087 -1.3330438903493018
-0.635634022880879 0.2583657006444469 -1.647812042354417
-0.5540825499554671 0.2679081474146869 -1.1469419391276292
-0.5106445641852702 0.2341705641408112 -1.0572833118673373
-0.4639164808062901 0.06802635531948907 -1.274781761869093
-0.4955934476075186 0.11975459399803867 -1.315463367990617
-0.7657615499105077 0.5372399342299445 -1.248266929071434
-1.0407363621328043 0.7622484713728568 -1.5522630184136688
-0.9911155306727436 0.7305661670193899 -1.4578506526603403
-1.1765992520695931 0.8240008665673599 -1.8566664513428182
-1.1641559091887077 0.8186048655595641 -1.871442578998256
-0.9190356170812491 0.5576510159965551 -1.8245515320617471
-0.16615436265988134 -0.2845842030496897 -0.8098181866295988
-0.17580670317300928 -0.27366241701037103 -0.8478270173306441
-0.17991207871756387 -0.26071527209802525 -0.829155250711409
-1.0702785428076709 0.7807175580178409 -1.6156840100680938
-0.1934127203557523 -0.2493839248893437 -0.8770774024535228
-1.1630495959796576 0.8110916521181935 -1.8826064012200163
-0.186439134410648 -0.2742267934012261 -0.8877456985378274
-0.8112779613255157 0.5956298586629032 -1.2390172804465465
-1.146910743477633 0.7916529072032858 -1.8872648984481373
-0.22169821009737234 -0.2361295779691659 -0.9419116852914726
-0.21332136614273625 -0.2254084335199877 -0.9023034949345003
-0.8596415441236331 0.6376654426745176 -1.2734925182180064
-0.9087656988365892 0.6737583955240893 -1.3356533862481967
-0.4361973451642029 0.029732424735300363 -1.345053368144761
-0.5891833950655609 0.2989493176989981 -1.2136667637900018
-0.6565605369610239 0.2785028662389664 -1.6694990133568126
-1.1302162822277069 0.8128981332912986 -1.7312148744421734
-0.9807089675958878 0.6171965273708224 -1.8508842947468904
-1.0316147121199035 0.6618880659175943 -1.8685877825753323
-0.4727165844606134 0.2085156138596176 -0.9748291887781306
-0.6781695867561552 0.304797077675687 -1.6893465179761336
-0.6127753581730531 0.3150096963354372 -1.2657105048797064
-0.6949365277662878 0.3174043530800645 -1.7023333750741756
-0.7168632783963176 0.33361165613490584 -1.7159671569721981
-1.0649412695013325 0.7149518176718743 -1.8765121748004676
-1.1253480552221615 0.808850236877845 -1.761625953314052
-0.5277689717000271 0.16281748359961054 -1.334640725913431
-0.18541901534337055 -0.2484251759306062 -0.8068336861121281
-0.1712066712703404 -0.2710033016970215 -0.7860028451565597
-0.7458813128486099 0.3728410313151471 -1.7361376460439717
-0.15969566192279672 -0.2922219709296883 -0.7727745579797727