# vtk DataFile Version 2.0
Surface Displacements
ASCII
DATASET UNSTRUCTURED_GRID
POINTS 502 double
82.86693572998047 83.58617401123047 9.949836730957031
83.1487808227539 82.02127075195312 9.897851943969727
84.61587524414062 83.00672912597656 12.176883697509766
82.97319030761719 84.44632720947266 13.154626846313477
81.62828826904297 82.59429931640625 12.957803726196289
83.26779174804688 81.08790588378906 13.805327415466309
85.20403289794922 79.93875122070312 18.742462158203125
85.2741470336914 83.14546203613281 16.195722579956055
83.91409301757812 84.46626281738281 15.902572631835938
80.8243179321289 83.56891632080078 16.988019943237305
80.66107940673828 79.99549865722656 16.937292098999023
82.15372467041016 84.47496795654297 16.53021240234375
83.19583129882812 78.6978530883789 16.787166595458984
79.59229278564453 81.31515502929688 20.464263916015625
85.07535552978516 83.49883270263672 19.132793426513672
82.929931640625 84.2131576538086 23.774124145507812
85.49879455566406 82.00003051757812 21.892751693725586
81.63282012939453 84.4024429321289 20.29579734802246
80.2885971069336 79.49256134033203 18.05689239501953
81.8729476928711 78.13985443115234 20.210514068603516
83.5057601928711 78.26783752441406 19.956518173217773
80.66743469238281 83.55585479736328 22.558876037597656
85.24238586425781 79.45941925048828 22.428808212280273
79.59048461914062 79.7018814086914 24.048080444335938
81.19149017333984 78.0166015625 23.948827743530273
84.18074035644531 83.5096435546875 23.9507999420166
82.95802307128906 77.90717315673828 25.83285903930664
85.56726837158203 81.15974426269531 26.468231201171875
78.6968002319336 81.7895736694336 26.57964324951172
84.61494445800781 83.01879119873047 27.619720458984375
82.6870346069336 84.00070190429688 28.328163146972656
83.97999572753906 78.81443786621094 28.09105682373047
81.04328918457031 77.6731948852539 28.011093139648438
80.01821899414062 83.5863037109375 28.073883056640625
79.17134094238281 78.01526641845703 28.764272689819336
84.0409927368164 80.95316314697266 31.769453048706055
78.30768585205078 80.15867614746094 30.408647537231445
82.22096252441406 77.75532531738281 30.001222610473633
81.34956359863281 82.72775268554688 31.94277000427246
79.03047180175781 81.90624237060547 31.968473434448242
83.00669860839844 78.34497833251953 31.118928909301758
79.55721282958984 76.44306182861328 31.085046768188477
77.89115905761719 78.17510223388672 30.998477935791016
78.09780883789062 80.96989440917969 36.10696792602539
77.88471221923828 76.93474578857422 34.37222671508789
79.61361694335938 75.76741790771484 34.28941345214844
76.98616027832031 78.90992736816406 35.45840835571289
82.25788879394531 77.3008041381836 34.966766357421875
76.33305358886719 63.205806732177734 32.03203201293945
78.60631561279297 64.42456817626953 35.0529670715332
76.85613250732422 65.30046844482422 32.91019058227539
83.54618072509766 80.65962982177734 35.31233596801758
77.00370788574219 62.15188217163086 35.495933532714844
74.89164733886719 64.66069030761719 35.46031951904297
74.81084442138672 63.483116149902344 36.47901153564453
79.74134826660156 81.71052551269531 37.063323974609375
79.49010467529297 74.01754760742188 38.4812126159668
76.60245513916016 66.93701171875 38.069908142089844
81.00505065917969 81.15593719482422 40.65172576904297
83.21354675292969 80.17750549316406 39.23611831665039
78.95600128173828 63.67963409423828 38.68647384643555
78.27440643310547 66.66754150390625 37.78253173828125
77.69170379638672 75.8581314086914 40.094966888427734
75.84477233886719 62.67180252075195 40.308631896972656
74.5852279663086 64.48411560058594 39.66144943237305
82.45933532714844 75.91169738769531 39.95845031738281
76.31939697265625 78.82408905029297 40.75938415527344
77.60281372070312 62.67893600463867 41.34071731567383
77.96127319335938 81.74357604980469 41.78197479248047
79.2590560913086 69.28854370117188 39.82835006713867
77.03559112548828 69.24281311035156 39.74923324584961
97.59026336669922 94.32730102539062 38.580841064453125
97.40010070800781 97.09114074707031 40.61139678955078
96.1289291381836 95.71550750732422 38.762699127197266
98.6178207397461 95.38512420654297 39.78519821166992
75.93724060058594 66.40861511230469 42.65528106689453
95.9373550415039 96.60186767578125 43.14312744140625
79.42179870605469 71.8742446899414 39.90816879272461
79.21820068359375 67.19092559814453 42.55827331542969
96.0600814819336 94.09619903564453 43.3526496887207
79.87098693847656 80.6705093383789 44.94150161743164
97.45213317871094 93.37059020996094 42.90898513793945
83.45133972167969 80.16204833984375 44.804508209228516
83.09732818603516 76.09394073486328 41.89594268798828
77.71683502197266 70.829833984375 42.12376022338867
78.10904693603516 73.14436340332031 42.4522819519043
77.09075927734375 80.6942367553711 43.10699462890625
81.69992065429688 70.87760925292969 43.294647216796875
75.52558135986328 63.85063171386719 42.901336669921875
78.51930236816406 64.44727325439453 43.60895919799805
76.21089172363281 68.7392578125 43.55971908569336
98.06844329833984 96.38865661621094 45.00908660888672
98.78645324707031 94.7988052368164 43.49755096435547
77.41172790527344 77.35496520996094 45.52256393432617
76.90231323242188 69.63855743408203 48.43105697631836
82.9068603515625 71.30546569824219 46.430274963378906
77.52477264404297 64.55242156982422 45.06985855102539
78.03583526611328 79.4337387084961 46.102928161621094
76.31671142578125 66.05459594726562 45.555118560791016
96.20310974121094 92.66907501220703 46.433650970458984
97.4795913696289 92.73252868652344 45.765995025634766
79.47216033935547 79.9438705444336 49.23712158203125
80.21170043945312 68.20866394042969 47.91511154174805
79.22382354736328 65.89140319824219 49.06541061401367
95.68000030517578 93.9997329711914 48.02238845825195
84.2389144897461 80.32225036621094 46.9345703125
84.8650894165039 75.83478546142578 48.87358856201172
98.23910522460938 93.73751831054688 48.675743103027344
77.48429870605469 71.83132934570312 50.559268951416016
77.32672882080078 74.34384155273438 51.791507720947266
85.13072967529297 80.53850555419922 49.1300163269043
77.00807189941406 66.97428131103516 50.735015869140625
97.01713562011719 94.80522155761719 48.678565979003906
97.25164794921875 90.77677154541016 48.755733489990234
83.03369140625 69.07628631591797 54.079559326171875
95.48368835449219 89.46294403076172 50.11572265625
93.81704711914062 90.70896911621094 53.08229064941406
80.1915283203125 66.1280288696289 53.068973541259766
78.15206146240234 78.06873321533203 52.09686279296875
84.45710754394531 80.9425277709961 51.5666389465332
86.32551574707031 78.20738220214844 51.879554748535156
94.62419128417969 93.25515747070312 52.690006256103516
97.79598999023438 93.88143157958984 52.40690612792969
85.93199920654297 75.5771484375 53.4476432800293
87.28838348388672 81.39620208740234 50.95791244506836
96.58712005615234 88.43317413330078 50.880916595458984
98.65719604492188 89.9381332397461 51.72768783569336
77.62187957763672 66.89414978027344 55.355682373046875
76.24007415771484 68.56739807128906 53.57685089111328
99.52210235595703 91.76229858398438 56.00449752807617
88.93562316894531 81.06175231933594 51.27529525756836
90.65553283691406 81.33406066894531 51.85963439941406
90.16705322265625 83.62960815429688 52.74532699584961
93.09016418457031 84.61483764648438 52.87229919433594
92.61327362060547 86.59022521972656 53.0050163269043
80.21744537353516 79.98831939697266 53.33833694458008
85.56787109375 72.60977935791016 58.00568771362305
77.07843780517578 71.96541595458984 54.93927001953125
86.64376831054688 82.4426040649414 54.7806396484375
78.01911163330078 78.23995208740234 54.9654426574707
95.9624252319336 86.70677185058594 52.92646026611328
88.12667846679688 77.69087219238281 54.3494987487793
76.28974914550781 68.28775787353516 56.409637451171875
92.5805435180664 79.93057250976562 54.564449310302734
91.91998291015625 86.5499267578125 54.87457275390625
92.9230728149414 88.29295349121094 55.76652526855469
87.1915512084961 76.15709686279297 56.12155532836914
81.5416030883789 65.92668914794922 55.79976272583008
81.61689758300781 81.46966552734375 58.960880279541016
76.2596664428711 69.78436279296875 55.69789505004883
95.32176208496094 82.90564727783203 55.78606033325195
76.62517547607422 73.44125366210938 57.69469451904297
98.52296447753906 88.35791778564453 57.32527160644531
84.67357635498047 69.43519592285156 59.60306167602539
97.91902923583984 93.51646423339844 57.24363327026367
89.8363037109375 84.73908996582031 60.2645149230957
85.00023651123047 82.19326782226562 58.56695556640625
96.9225082397461 84.59883117675781 59.58256912231445
84.08087921142578 66.17489624023438 58.356163024902344
75.68814849853516 72.1151351928711 59.80819320678711
94.33740234375 92.8726577758789 58.0469970703125
75.60324096679688 68.51249694824219 59.79519271850586
94.27748107910156 80.5478744506836 57.183738708496094
91.94700622558594 78.11544036865234 60.32892990112305
77.47537231445312 77.66246032714844 59.02605438232422
74.99356079101562 69.90682220458984 59.646663665771484
97.76525115966797 92.66195678710938 59.713191986083984
90.6425552368164 85.59625244140625 62.02399444580078
78.44099426269531 66.43528747558594 61.12849807739258
98.7740478515625 89.28401184082031 59.650081634521484
86.26131439208984 73.25865936279297 60.40890121459961
96.3497085571289 82.41898345947266 63.28561782836914
93.76409149169922 89.49749755859375 60.926490783691406
95.38744354248047 92.3393783569336 60.610050201416016
98.92517852783203 87.26948547363281 60.48496627807617
82.53855895996094 64.9547119140625 60.99045944213867
97.99573516845703 88.9396743774414 61.55706024169922
89.9853286743164 75.5876693725586 63.847591400146484
73.1211929321289 70.06166076660156 63.04634475708008
95.71817016601562 80.03722381591797 63.292945861816406
75.7244873046875 74.89873504638672 62.721920013427734
77.90265655517578 65.62950897216797 65.0051498413086
88.77484130859375 84.66478729248047 63.50554656982422
72.79676818847656 68.46879577636719 66.46822357177734
[...]
POINT_DATA 502
VECTORS displacement double
0.5821391050526081 0.7801357674472396 -3.931361065585108
0.6034280826211553 0.6440355878840585 -3.9849325238073523
0.8644485453245832 0.9001008203033667 -4.79723897296892
0.7608422882798145 0.9987067194741748 -4.950372777960535
0.5900657614283347 0.7646165499638755 -4.9381008877076376
0.7463246257169409 0.7010648203944978 -5.481496161199324
0.5819305767265597 0.14108266160926594 -6.936877435937014
0.9272268984307814 0.850103886474658 -5.909708306233821
0.8689122281309203 0.9660483036380452 -5.716352059204746
0.5121102949497089 0.6328213345897709 -5.795727008596924
0.5963327048188365 0.5408912827067045 -6.851602211397336
0.6503732267229658 0.7901482666627437 -5.650192133365295
0.744255948001129 0.4864722769754053 -7.031710912621397
0.2735130156746433 0.05946336984940714 -6.805560324044187
0.6396314720003851 0.3827062607372849 -6.240375362671204
-0.05711700180757795 -0.7095575465862414 -6.231357211716978
0.04767098553968019 -0.6626697616946782 -6.844870967621922
0.34902386217235915 0.1920123143572869 -6.0092537600775096
0.5847736680176663 0.4621478254137763 -7.344712904725269
0.4864639307712402 0.024683420932072764 -8.349087514342614
0.4303723628299654 -0.10030009504547266 -8.014642251891445
0.08097117634056873 -0.33240407758773394 -6.190842469651472
-0.3595152863018818 -1.310049448093512 -7.523503293027595
-0.1709633364621279 -0.8457778118622699 -6.879168064064473
-0.39780648411022135 -1.2418133981591613 -7.548392034583845
-0.2142441285517052 -1.0281408232673959 -6.570457093419599
-1.2658820131947517 -2.575828459609628 -7.704285985651435
-1.4769086563657563 -2.897661657669845 -7.4691190064917015
-0.09854282048098996 -0.8620152776060763 -5.7180598479751765
-0.7067133639896266 -1.879266416079908 -6.5544614691610334
-0.27535578107106673 -1.2880232551977748 -5.8599588028304055
-1.7958640822725496 -3.30587958071566 -7.660523754692213
-0.7367338096248925 -1.812847140495496 -6.726532435943817
-0.07335343076621292 -0.9623869280806724 -5.452846515234157
-0.250781145287581 -1.1326277285189708 -5.9558590565976175
-0.3344937918245279 -1.2916790464816046 -6.060317639932897
0.08833980109467633 -0.8243441801987572 -5.290655659782047
-0.7344942858183501 -1.8248315944793363 -6.659289650094537
0.0946628652727064 -0.9084617390871408 -5.3184773716883535
0.2559694344126342 -0.7241534907472342 -4.979175621173613
-0.5864091229794717 -1.5963290287801308 -6.5258842411921725
-0.026235001433310142 -0.8060865229676448 -5.725375298651155
0.1659316147690788 -0.6547043407109143 -5.236649255252104
0.7422775999285118 -0.1999641766174136 -4.408274629393438
0.5219781721870298 -0.20620764844585796 -5.1727867197548605
0.4573210805048369 -0.20381131805079103 -5.805663890396311
0.6909614756961222 -0.16033873138607646 -4.535240463286595
0.3322401435150937 -0.1322057522089466 -6.0586124478459205
0.049806150972447234 -0.37941755706092906 -2.803922060857744
0.2322058153669744 -0.5595326401298681 -3.9188741612214666
0.11121179170905647 -0.3567283148264337 -3.3515889512124275
0.370689385821354 -0.16676791060558038 -5.34022479263465
0.08791375371033894 -0.5801239003791583 -3.0238574969187724
0.042339068000186934 -0.486169353934562 -3.1319309983125483
-0.031939158671971064 -0.5499596608005746 -2.9014192068756373
0.7778511021675278 -0.09987653449366007 -4.502434190955505
0.6196884954158133 0.5818018877108244 -5.755001690362775
0.24625773640243945 -0.2294225854101821 -3.72764397917701
0.9844986652101788 0.3355402850126588 -4.357619006689312
0.6999926365801681 0.5631139315116389 -4.9822228301852185
0.2011804592324662 -0.30120286577753674 -3.1043061124226767
0.2894542719529909 -0.1916638780290647 -3.9845120742942575
0.8020877340719608 0.5006813753003669 -4.842737839768216
0.01356889221783142 -0.3875858862446595 -2.3525908232961967
-0.03656957360127855 -0.4203041155977125 -2.751064219945817
0.3372449450506849 1.204272737763354 -6.047430052257322
1.116001421219801 0.12495578344102752 -3.674885227276256
0.14291383234423272 -0.14803948651674406 -2.1905005063232963
1.2903191469132196 -0.046837782316881515 -3.3235039059213705
0.4602171896107077 0.35450923392556355 -4.368718894642129
0.4812479415838897 0.15527499969409675 -3.9644511714722057
2.2426903090015635 3.2288364642510117 -6.533641527757312
1.886646062865992 3.025320849836831 -5.847261291541593
2.148626962623153 3.4286339449423164 -6.86103597344529
2.1325222569739206 3.0779283281178285 -6.057741850095468
0.4403474663141793 0.1297642419515359 -2.665209152992894
1.770044201541456 2.521465804633756 -4.845434841198497
0.5511777262978015 0.6311729949942659 -5.116637726836822
0.4489450423925057 0.4022867171895239 -3.2603453835916696
1.8780893957247555 2.40559472676207 -4.623946855841673
1.4176795842817906 0.1287440885856217 -3.368923730288905
1.9132187801679381 2.522696656714583 -4.672667313835858
1.1057436692360658 0.6521471630944191 -3.8142320772742413
0.369671776650268 1.3471394928860845 -5.509049176150229
0.6857963418009287 0.5037427414924682 -4.056690589551486
0.7853619747464258 0.6662211809713909 -4.483343507137867
1.4019621003380769 -0.061666118172011515 -3.06689159646826
0.4926297656849616 0.9499220711832628 -4.316164729181196
0.26789446225356706 0.015184616654687844 -1.9809365264017416
0.34345651462446725 0.2906252529852562 -2.2040160115819347
0.7269489007592541 0.35530756849508194 -3.00395914009556
1.7759223355415903 2.4500573579976357 -4.274311560762712
1.8999096484254885 2.5791622172566004 -4.611561310913878
1.4213524182028774 0.19721166793114264 -3.260285037826044
1.3279906422344538 0.6057161309002019 -2.6405497390628554
0.6109546890385822 0.9659678595344959 -3.886472846210566
0.4606349431103816 0.41262310244375655 -1.891198718356208
1.5882514475378908 -0.041153730980113316 -2.9304247978931386
0.6888789879344568 0.4563360862600714 -2.0477899925051304
1.7863894794627306 1.9987589505380343 -3.6128612260864235
1.789721945737556 2.191458428423978 -3.7733182881339857
1.8798509990481804 -0.3159522066845337 -2.440230269335373
0.8496132165367367 0.7872343309574603 -3.072894597527778
0.7080151559306973 0.7849170507657774 -1.944213665103696
1.7684591934878195 1.8019492200056837 -3.4028733496622934
1.2593415005952642 0.5771600363667382 -3.2697170200625507
0.6633221482540534 0.7977723308253779 -3.100887241847793
1.763535083428657 2.08097730305928 -3.299860659047241
1.6307458904003358 0.3661160485366253 -2.5617197607916182
1.9547997346100647 -0.07294007451118034 -1.9604417685583824
1.4190085874570109 0.5411087235940926 -2.8095165384620917
1.1714121408956741 0.7216917469299471 -1.699944275011397
1.7463293138895215 1.9594734296023282 -3.3763989882153997
1.7077998002850912 1.9062605879678556 -2.961177435573425
0.6496578842099119 0.5252722357075221 -1.6746996145189568
1.7354035722817898 1.6282596194041297 -2.654490585289828
1.891969626240547 0.9961545568051982 -2.409956622366685
0.6993234625073796 0.6560341285218261 -1.456267106893769
2.214726838482859 -0.5794330449299281 -1.7055603963650725
1.804414133658387 0.1100155834127534 -2.4153356922871936
0.9996155397807148 0.6099365208836591 -2.332675026958917
1.8048208273240576 1.1057948152297534 -2.61712361277192
1.7677057490194947 1.7480333205458596 -2.7587264055900182
0.5782949177400987 0.4680183254814772 -2.0597748148658326
1.6563264654972618 0.9216325338633968 -2.467495484199354
1.6510370886933536 1.7565226384193249 -2.4248124768226944
1.6731662392387157 1.8769528968129947 -2.438980763431239
1.149851372813842 0.4966336959467626 -0.7023254310903653
1.5252099248870294 0.4572604149153001 -1.08431358816987
1.8279025558617088 1.7346649838065815 -2.136374567073254
1.5756967637848618 1.4005629874400736 -2.320461744775073
1.5674094639021128 1.7410510952072258 -2.1133114936467834
1.9640989406593616 1.2731814309886522 -2.2045690249496275
1.7180536782132467 1.5532264628024564 -2.033386616541115
1.8888056265721769 1.1775643216476634 -2.179019639706034
2.331020667428458 -0.8277232992748047 -1.6760006256337547
0.8175698845178639 0.4737634124446828 -0.4844365938893276
1.9768901752862345 -0.09861690278479608 -0.9160437565346128
2.2621869676433857 0.058645535100344766 -2.0126194151022148
2.627273486721471 -1.0293006508548164 -0.8571831998733117
1.639311697145212 1.6653534546167776 -2.0567010379196446
0.9920547989055812 0.8212040041168241 -1.6968012450155427
1.5124400909520244 0.27964208597161466 -0.3098406156055802
1.1536538275176245 1.6973602279184146 -1.4350736988060433
2.012499597954825 0.7753950079299319 -2.00604899411465
1.9941391140119773 0.6411620785392032 -1.98493543960803
0.9790902360644118 0.5144797497971574 -1.2853150815492
0.5557354450947329 0.5547346195296576 -0.7469877486525789
3.256432823411208 -1.8881731188249908 -0.9565902558382078
1.7553213801222933 0.13902583056749052 -0.5104195479532976
1.393920982729508 1.622199836375577 -1.4293629974641249
2.4829133546532844 -0.7382368019295367 0.2625773718173505
1.7631753084237278 1.5524793265157424 -1.7179458363019222
0.5584827142730262 0.32034333034897605 0.11570513560249653
1.803643791962408 1.3244913085152008 -2.15864571545086
2.2074512436791243 -0.6050218310559448 -1.3177504763905787
2.8841809103835505 -1.2549922818519992 -1.4856761136837164
1.584461658684596 1.2274937997182445 -1.172924936501154
0.2644252323554319 0.5303008266566298 -0.12780160472545532
2.3472832551678504 -0.7943332908152971 1.021626593313094
1.8291871100855792 0.3385968397275185 -2.0135161284374945
1.5367213953587466 -0.08439085704025295 0.6379894531029109
1.1386271647502753 1.442815611427621 -1.0981222542431368
0.9747014908638238 0.7178156905903599 -0.5720360788715482
3.1509133213326117 -1.6634400798698348 0.5490445250370612
1.8695168141771603 -0.2482124938230861 0.7580607695985861
1.8295731069900365 1.0679402119340509 -1.8523173960732109
2.055574523976123 -0.7999884829625117 -1.128697595899432
0.8044587247931734 -0.17522447490660475 0.7641732226153479
1.846579119739728 1.3536636744191313 -1.5679047083285695
0.9361118081292544 0.10379969134225676 0.07540228230502066
1.3585167688060158 0.6643727540667985 -0.6055086930398872
1.9285334941251104 -0.0906595253790332 -1.4970268042551351
1.7862444036213248 0.28478868987087225 -1.7305063223710633
1.762419423178928 1.3303346661906783 -1.278489865428682
0.2139554699199984 0.07788620500718046 0.4763254557418648
1.8195955307012743 0.9590821051389772 -1.3348102684506102
0.6155512479366774 0.07281543757479447 0.19805489767983173
1.4964766111905217 -0.5147733191201755 1.764906091636405
1.008342657405958 0.7273780528350837 -0.40556602162428135
3.0659628122634364 -1.886284659641268 2.27674701015561
0.18960210960666046 -0.9062599640025316 1.7610351969674198
2.1090733866226667 -1.4208032236632473 -0.8595221626247209
0.14275188786983328 -1.0489985102241042 2.8813433568813096
0.5983291392759291 0.359513762976194 -0.01983211637463711
2.7278785924073823 -2.371262923452539 1.1597334945733309
1.7037031039449992 0.99329471065192 -0.6121895687947898
3.107662798177687 -2.2025797303818706 -0.5780826734635909
-0.08240582011519848 -0.7899774138086713 1.0539261618628115
1.4651105773933573 0.5224521387577852 -0.3662073920256788
0.7530512251383534 -1.110619741041898 2.9606339381767555
3.4117919522486453 -2.137679599818497 1.6964852152258985
1.8691307940833133 -1.464160879459433 3.0143807150186817
1.7116097793461584 -2.3727405953021883 0.5679471049948859
0.5833561813549721 -0.31875772887111964 0.6100933808313798
1.646665454197933 -0.7338959304241435 -0.8027600581625123
-0.15606000922996974 -1.4297642982678198 1.3594632656968528
-0.07663067834248416 -1.0524431148748317 1.2926707042516838
1.7168146467206569 0.6579124737594313 -0.6304800829053434
0.624821775752439 0.3674761167565848 -0.03754605036633762
0.0581018902888335 -0.8526884432527932 1.2173901028248435
1.6281646172066768 0.2413695751326408 -0.7516637484198156
0.726758141934841 0.4954390457192624 0.05181781878481928
0.1397509910851067 0.09107318654854524 0.3946144355269752
-0.20535440239327585 -1.5500929898825788 1.77377906933593
2.8630651857984386 -1.972468738555504 2.2136430797290174
2.4045791899985787 -2.0708035526274884 2.2547720436135283
1.7912623737365028 0.468308132926806 -0.0572687461231709
1.4615183666559943 -0.22049214978996898 -0.5790198837674296
1.2368811520477971 0.333232085536924 -0.1953031367252791
-0.7230646260178446 -0.6903732655790549 1.4505873288357876
0.2254238367469572 0.06818780221337661 0.2323640983126012
1.1530226656065758 -1.2052310468232241 -0.4339518704112706
1.5126327773089123 -2.223220951223725 2.009150621590038
1.520885734987143 0.22035997086409864 -0.3288906477901534
-0.8056969977376767 -1.3527630647642948 2.8855801151681466
1.232217685663333 -0.19789045122637816 -0.27049279777075697
1.0241732436530595 -1.0980607305364174 3.1063716302634603
1.87845564476468 -1.6418730167468458 2.203408543510648
-0.7487114220494373 -0.39042844859179293 1.0075093287293484
-0.5259383794180756 -0.9175122774968704 3.5071694983794046
1.5583419367167135 -1.7600053164664224 1.7063402012737114
1.7324040286383422 -1.3989633154330081 2.1917531670222843
1.2862043654884872 -1.867670625095524 1.7406414413510305
0.6535021610116925 -2.282622158183917 0.03233130818162522
-0.20681074338998864 -2.3529570256436347 1.8552805431834611
-0.0828938610874026 -1.7706090331390347 1.4947829631142897
0.30323201672557154 -1.6635719958785415 2.6573139652807067
0.7507371288435198 0.28820700898745244 0.13200940079622114
0.4931896354363126 -2.0134274647155728 2.32090359405575
0.9163293604467544 -0.1257641927407942 -0.03250591944126313
0.2677372856916662 -0.7596410099439161 3.8078759888301903
-1.096433805999057 -1.8163024311860667 2.710268831414126
0.3687748371893118 -1.7354419142479731 -0.20607226223630448
0.7084866924003119 -0.7429546454147467 -0.08430678431655281
-0.19206544554039692 -1.5013095816977486 3.095513828624817
0.09059093889452896 -1.9999840580269408 2.4881032607396993
-0.5976932249851785 -0.8473057298943001 4.342470883353997
-0.5838312563309547 -2.415530501527451 2.1735981750792064
-1.1233199243424752 -1.6198180599056613 1.9043165085880036
-0.08203899986616038 -1.1272031371321916 3.3312450919456325
-0.3947110718817584 -0.8833697812417753 4.125420492301281
-1.0981545463595488 -1.1698256690745463 4.585476716506996
-0.5807928882670943 -2.6423262053742462 2.1014702280591417
-0.09676513446132518 -2.667277335315981 1.5123594188311031
-1.6128217286161008 -1.200522104579278 1.6497960504292095
-1.1254227229904323 -0.7202113065797935 1.0771373420511663
-1.3027699010561395 -0.9673041675685284 4.8325074665128165
-0.848622103336039 -0.9987920018367262 3.5778628038503726
0.27085690957257924 -2.192716241081012 2.1835960447847143
-0.9467838073797594 -1.360227265406051 1.6844718120557047
-0.9406655506865498 -1.221436355193715 1.7034035323129617
-0.913483893962484 -1.2318690037866098 1.905556182902892
0.10931156046548017 -0.3542530254548737 0.24984061649453795
-1.4638205791572396 -2.54983309872128 3.365126508998266
-1.4263169081821252 -1.082991789910526 2.055373668015456
-1.0372825329910371 -1.1375501811854356 4.2619664528503085
-1.2925281019813806 -1.4331792048081535 3.3805569399444337
-0.4503311360553983 -1.8598079518625763 2.9928195854232906
-1.0435855566612169 -1.3576627881481471 1.8318313325201243
-0.9367211398953916 -1.4657947287773447 1.9178761402547904
-1.104392128785422 -1.5180783514536282 2.6070345551051943
-1.3588411292526157 -1.4013859461565126 3.5821699742753736
-0.9160775637362768 -1.0300828035128493 3.9703693476640614
-0.9481290796832162 -2.4375912792886893 2.9456198315669013
-0.30435174440645696 -2.682122838884132 0.7840710456841078
-1.368403496069595 -1.1666757222743698 2.838766083887293
-0.7152557661178935 -2.2164266629110188 2.1459826086619813
-1.3802808145676853 -1.037390028902907 2.669978368720379
-1.2132790186528697 -1.1258854411331498 2.0026172546612315
-0.18577583903928208 -2.5378174476274555 0.1649329775486521
-1.6028056459850646 -1.8343063496642245 3.8089791587981097
-1.1257093326911836 -1.5914124163279748 2.7976169519201406
-1.591869634878245 -1.6739920997239306 4.122682789955732
-0.19189704210285896 -1.0131369357835958 0.2627445997968607
-0.9818655191517144 -1.6346332104454984 3.2577225611907186
-1.5263208432265465 -1.6467356340417574 4.648344244273723
-0.990195066352495 -2.1895564684670656 2.2936762862047715
-0.8639761748421559 -2.141581887112837 3.121586427106557
-0.5528196908277287 -2.3649787156834137 0.2236906828484564
-1.2140355509836331 -1.4199250434577095 0.9013745931502156
-0.5913033914712269 -1.939112002139419 2.8203564835557207
-1.0177357042717308 -1.7791685185907902 3.1218033144271264
-1.5006308072163923 -0.9692358581690126 2.6729096549959763
-1.7891399060558388 -1.1635178631256569 4.823950715295979
-1.315851466519664 -1.4854075087800371 3.1156580654186143
-0.8425796044081313 -2.21711293121011 2.294603261330842
-1.6434926933808622 -1.0774148434507822 3.3659612166579365
-2.3574262197374694 -0.33959471182279266 3.7925049421908237
-0.4202636426910367 -2.3981761117110043 2.3614409858894163
-1.7093134008130804 -1.3124034741092585 5.159668000524653
-1.8168988759110185 -1.162587081050189 3.99172886575397
-1.8308871686802188 -0.9570404279322896 3.456050659776267
-1.618182243596566 -2.36826694411506 3.7598787747895344
-1.9147583101487025 -2.1124286542148383 5.363804972365436
-1.1398474770030838 -1.9495864330922248 3.1287727345762306
-1.285102094124321 -2.119253789710312 3.4023040823231057
-1.7694856785768918 -2.6360615498572098 1.2696481661145
-2.101600377241972 -0.5791235403017811 3.103956947444516
-0.9301410599930476 -2.8064176058392536 1.9019879046405848
-2.108318586964769 -1.1285014827334905 4.440790559650388
-1.3055628654263014 -1.7253826629631597 3.260094419115653
-1.9020504991118248 -0.6211653980502536 2.671916356488154
-1.5008564617205913 -1.5234132938683942 4.270000958284292
-1.4253883234446771 -2.650336741359377 3.3050033333772437
-1.852629710649353 -2.071640117233001 2.009955213283994
-1.1839004091142318 -2.4477847602344434 3.2198673029740448
-1.3974694205434022 -1.863403203672345 2.2745255652344905
-2.24662133191606 -0.256928206407224 3.03810211124123
-1.3324907562090968 -2.755953379972329 1.205108587226256
-2.26600618833106 -1.366999865150305 5.4392281728755165
-0.9155779028969792 -2.196216430834582 2.5252238977093033
-1.5495904468580155 -1.5901482958039637 3.5144260469343185
-1.5467389615331015 -1.319662662554251 3.404560136891284
-1.7548488625188146 -2.2587365463818454 4.3366248315352385
-1.892336708516229 -2.328996253823366 1.919163359388854
-1.3374643644815958 -2.7560415382851904 2.7648393996090377
-2.325704931936839 -2.252471196124445 5.930791114183122
-1.5362132497828878 -2.1345378835570568 3.6972653884618296
-1.852327692028032 -2.6997527513428103 2.1119196934304867
-1.5727309209833908 -1.997571847480604 4.6571267951469295
-1.6906772529278609 -2.2168492549168266 5.186799258365092
-1.2748811198935182 -2.4221769013496104 3.2339046144162253
-1.6103051554491363 -2.726853737968595 2.0679068199387487
-2.011733378845415 -0.8049057835930798 3.9995981571112793
-1.916636815855904 -2.478428019363569 5.610159657433492
-2.5654496944733545 -1.9101847455651888 6.048638085434532
-1.8485180764863818 -2.7286449701045523 4.23162762645633
-1.3155083183694831 -2.704041002196753 3.0280130871828486
-2.658744167989044 -0.4649712373964441 4.0965430336521536
-2.4842973427282833 -0.8726112213519244 4.445447532029887
-1.269977538803948 -1.8172140341218397 3.287594630324968
-1.2724020845807864 -2.169664053563533 2.822090794704621
-1.79914457981487 -2.471234405944415 5.252188687114356
-2.7057245902024505 -1.4105788235630303 5.600504344837211
-1.7796870502125677 -0.6444757766589717 4.181614105997468
-2.522856364940933 -1.600188544776099 5.79178745738006
-1.8964034076475242 -2.6426150622048823 4.155341390094996
-1.4049150982512175 -1.8004276599156697 2.374154005423456
-2.6918026312865315 -0.00016497766386791568 3.647829072447777
-1.4746552148119871 -1.3291871002128666 4.165349288888507
-1.2347929024876445 -1.79044719556304 3.4622750642349587
-1.6637819595299437 -2.023615586384375 4.005204495495819
-1.907986027794996 -2.6896025624331763 5.742010991504821